chemcompute.org
{'UTCtimestamp': '2022-12-20T21:37:56.426432', 'cluster': 'jetstream2', 'clusterJobNumber': '169792', 'status': 'RUNNING', 'nodeList': 'chemcompute-node-0'}
----- GAMESS execution script 'rungms' -----
This job is running on host chemcompute-node-0.novalocal
under operating system Linux at Tue Dec 20 21:38:00 UTC 2022
SLURM has assigned the following compute nodes to this run:
Available scratch disk space (Kbyte units) at beginning of the job is
Filesystem     1K-blocks     Used Available Use% Mounted on
/dev/sda4       61775852 11348952  50426900  19% /
GAMESS temporary binary files will be written to /scratch/169792
GAMESS supplementary output files will be written to /data/slurm/51/518202
Copying input file 518202.inp to your run's scratch directory...
The generated host list is
chemcompute-node-0.novalocal

 Distributed Data Interface kickoff program.
 Initiating 1 compute processes on 1 nodes to run the following command:
 /data/gamess-2019R1-avx2-ddi/gamess.00.x 518202 

          ******************************************************
          *         GAMESS VERSION = 30 JUN 2019 (R1)          *
          *             FROM IOWA STATE UNIVERSITY             *
          * M.W.SCHMIDT, K.K.BALDRIDGE, J.A.BOATZ, S.T.ELBERT, *
          *   M.S.GORDON, J.H.JENSEN, S.KOSEKI, N.MATSUNAGA,   *
          *          K.A.NGUYEN, S.J.SU, T.L.WINDUS,           *
          *       TOGETHER WITH M.DUPUIS, J.A.MONTGOMERY       *
          *         J.COMPUT.CHEM.  14, 1347-1363(1993)        *
          **************** 64 BIT INTEL VERSION ****************

  SINCE 1993, STUDENTS AND POSTDOCS WORKING AT IOWA STATE UNIVERSITY
  AND ALSO IN THEIR VARIOUS JOBS AFTER LEAVING ISU HAVE MADE IMPORTANT
  CONTRIBUTIONS TO THE CODE:
     IVANA ADAMOVIC, CHRISTINE AIKENS, YURI ALEXEEV, POOJA ARORA,
     ANDREY ASADCHEV, ROB BELL, PRADIPTA BANDYOPADHYAY, JONATHAN BENTZ,
     COLLEEN BERTONI, BRETT BODE, KURT BRORSEN, CALEB CARLIN, GALINA CHABAN,
     WEI CHEN, CHEOL HO CHOI, PAUL DAY, ALBERT DEFUSCO, NUWAN DESILVA,
     TIM DUDLEY, DMITRI FEDOROV, ALEX FINDLATER, GRAHAM FLETCHER, 
     MARK FREITAG, KURT GLAESEMANN, ANASTASIA GUNINA,
     DAN KEMP, GRANT MERRILL, NORIYUKI MINEZAWA, JONATHAN MULLIN,
     TAKESHI NAGATA, SEAN NEDD, HEATHER NETZLOFF, BOSILJKA NJEGIC, RYAN OLSON,
     MIKE PAK, BUU PHAM,
     SPENCER PRUITT, LUKE ROSKOP, JIM SHOEMAKER, LYUDMILA SLIPCHENKO,
     TONY SMITH, SAROM SOK LEANG, JIE SONG, TETSUYA TAKETSUGU, SIMON WEBB,
     PENG XU, SOOHAENG YOO, FEDERICO ZAHARIEV

  ADDITIONAL CODE HAS BEEN PROVIDED BY COLLABORATORS IN OTHER GROUPS:
     IOWA STATE UNIVERSITY:
          JOE IVANIC, AARON WEST, LAIMUTIS BYTAUTAS, KLAUS RUEDENBERG
     UNIVERSITY OF TOKYO: KIMIHIKO HIRAO, TAKAHITO NAKAJIMA,
          TAKAO TSUNEDA, MUNEAKI KAMIYA, SUSUMU YANAGISAWA,
          KIYOSHI YAGI, MAHITO CHIBA, SEIKEN TOKURA, NAOAKI KAWAKAMI
     UNIVERSITY OF AARHUS: FRANK JENSEN
     UNIVERSITY OF IOWA: VISVALDAS KAIRYS, HUI LI
     NATIONAL INST. OF STANDARDS AND TECHNOLOGY: WALT STEVENS, DAVID GARMER
     UNIVERSITY OF PISA: BENEDETTA MENNUCCI, JACOPO TOMASI
     UNIVERSITY OF MEMPHIS: HENRY KURTZ, PRAKASHAN KORAMBATH
     UNIVERSITY OF ALBERTA: TOBY ZENG, MARIUSZ KLOBUKOWSKI
     UNIVERSITY OF NEW ENGLAND: MARK SPACKMAN
     MIE UNIVERSITY: HIROAKI UMEDA
     NAT. INST. OF ADVANCED INDUSTRIAL SCIENCE AND TECHNOLOGY: KAZUO KITAURA
     MICHIGAN STATE UNIVERSITY:
          KAROL KOWALSKI, MARTA WLOCH, JEFFREY GOUR, JESSE LUTZ,
          WEI LI, JUN SHEN, J. EMILIANO DEUSTUA, PIOTR PIECUCH
     UNIVERSITY OF MINNESOTA:
          YINAN SHU
     UNIVERSITY OF SILESIA: MONIKA MUSIAL, STANISLAW KUCHARSKI
     FACULTES UNIVERSITAIRES NOTRE-DAME DE LA PAIX:
          OLIVIER QUINET, BENOIT CHAMPAGNE
     UNIVERSITY OF CALIFORNIA - SANTA BARBARA: BERNARD KIRTMAN
     INSTITUTE FOR MOLECULAR SCIENCE:
          KAZUYA ISHIMURA, MICHIO KATOUDA, AND SHIGERU NAGASE
     UNIVERSITY OF NOTRE DAME: ANNA POMOGAEVA, DAN CHIPMAN
     KYUSHU UNIVERSITY:
          HARUYUKI NAKANO,
          FENG LONG GU, JACEK KORCHOWIEC, MARCIN MAKOWSKI, AND YURIKO AOKI,
          HIROTOSHI MORI AND EISAKU MIYOSHI
     PENNSYLVANIA STATE UNIVERSITY:
          TZVETELIN IORDANOV, CHET SWALINA, JONATHAN SKONE,
          SHARON HAMMES-SCHIFFER
     WASEDA UNIVERSITY:
          MASATO KOBAYASHI, TOMOKO AKAMA, TSUGUKI TOUMA,
          TAKESHI YOSHIKAWA, YASUHIRO IKABATA, JUNJI SEINO,
          YUYA NAKAJIMA, HIROMI NAKAI
     NANJING UNIVERSITY: SHUHUA LI
     UNIVERSITY OF NEBRASKA:
          PEIFENG SU, DEJUN SI, NANDUN THELLAMUREGE, YALI WANG, HUI LI
     UNIVERSITY OF ZURICH: ROBERTO PEVERATI, KIM BALDRIDGE
     N. COPERNICUS UNIVERSITY AND JACKSON STATE UNIVERSITY:
          MARIA BARYSZ
     UNIVERSITY OF COPENHAGEN: Jimmy Kromann, CASPER STEINMANN
     TOKYO INSTITUTE OF TECHNOLOGY: HIROYA NAKATA
     NAGOYA UNIVERSITY: YOSHIO NISHIMOTO, STEPHAN IRLE
     MOSCOW STATE UNIVERSITY: VLADIMIR MIRONOV
     A.N.NESMEYANOV INSTITUTE OF ORGANOELEMENT COMPOUNDS OF RUSSIAN ACADEMY OF SCIENCES:
          IGOR S. GERASIMOV

 EXECUTION OF GAMESS BEGUN Tue Dec 20 21:38:00 2022

            ECHO OF THE FIRST FEW INPUT CARDS -
 INPUT CARD>!                                                                               
 INPUT CARD>!   GAMESS Calculation input file                                               
 INPUT CARD>!                                                                               
 INPUT CARD>!                                                                               
 INPUT CARD> $CONTRL SCFTYP=RHF MAXIT=200 RUNTYP=ENERGY                                     
 INPUT CARD>         COORD=UNIQUE MULT=1                                                    
 INPUT CARD>         ICHARG=0                                                               
 INPUT CARD>         DFTTYP=B3LYP                                                           
 INPUT CARD>         MOLPLT=.FALSE. PLTORB=.FALSE.  $END                                    
 INPUT CARD> $SYSTEM TIMLIM=2879 MWORDS=250  $END                                           
 INPUT CARD>                                                                                
 INPUT CARD> $STATPT OPTTOL=0.0005 NSTEP=999 $END                                           
 INPUT CARD> $STATPT IHREP=0  $END                                                          
 INPUT CARD>                                                                                
 INPUT CARD> $DFT    METHOD=GRID  NLEB=590  $END                                            
 INPUT CARD>                                                                                
 INPUT CARD> $BASIS  GBASIS=N31 NGAUSS=6                                                    
 INPUT CARD>         NDFUNC=1   NPFUNC=0  $END                                              
 INPUT CARD>                                                                                
 INPUT CARD> $SCF    DIRSCF=.T. $END                                                        
 INPUT CARD> $GUESS  GUESS=HUCKEL  $END                                                     
 INPUT CARD>                                                                                
 INPUT CARD> $DATA                                                                          
 INPUT CARD>                                                                                
 INPUT CARD>  C1                                                                            
 INPUT CARD>C     6.0    -1.27472     0.62158     0.13111                                   
 INPUT CARD>C     6.0    -1.24387    -0.71734     0.10048                                   
 INPUT CARD>C     6.0    -0.00945    -1.43748    -0.07031                                   
 INPUT CARD>C     6.0     1.16940    -0.80377    -0.12177                                   
 INPUT CARD>C     6.0     1.29320     0.69046    -0.02328                                   
 INPUT CARD>C     6.0    -0.04005     1.46518    -0.01331                                   
 INPUT CARD>H     1.0    -2.22302     1.13268     0.25481                                   
 INPUT CARD>H     1.0    -2.15807    -1.29483     0.19821                                   
 INPUT CARD>H     1.0    -0.06025    -2.51976    -0.14160                                   
 INPUT CARD>H     1.0     2.08215    -1.37885    -0.23061                                   
 INPUT CARD>H     1.0     1.90743     1.04903    -0.85544                                   
 INPUT CARD>H     1.0     1.85496     0.92727     0.88615                                   
 INPUT CARD>H     1.0    -0.12917     2.04031    -0.94079                                   
 INPUT CARD>H     1.0    -0.01794     2.20372     0.79462                                   
 INPUT CARD> $END                                                                           
 INPUT CARD>                                                                                
 INPUT CARD>                                                                                
 INPUT CARD>! Customizations after this line are persisted when using Do More Calculations  
  250000000 WORDS OF MEMORY AVAILABLE

     BASIS OPTIONS
     -------------
     GBASIS=N31          IGAUSS=       6      POLAR=POPN31  
     NDFUNC=       1     NFFUNC=       0     DIFFSP=       F
     NPFUNC=       0      DIFFS=       F     BASNAM=        


     RUN TITLE
     ---------
                                                                                 

 THE POINT GROUP OF THE MOLECULE IS C1      
 THE ORDER OF THE PRINCIPAL AXIS IS     0

 ATOM      ATOMIC                      COORDINATES (BOHR)
           CHARGE         X                   Y                   Z
 C           6.0    -2.4088715111        1.1746158794        0.2477619743
 C           6.0    -2.3505734643       -1.3555760400        0.1898796672
 C           6.0    -0.0178579106       -2.7164433128       -0.1328666342
 C           6.0     2.2098455700       -1.5189050572       -0.2301119335
 C           6.0     2.4437936473        1.3047802055       -0.0439928210
 C           6.0    -0.0756835258        2.7687887227       -0.0251522529
 H           1.0    -4.2008986652        2.1404548318        0.4815210789
 H           1.0    -4.0781609623       -2.4468739007        0.3745625880
 H           1.0    -0.1138559908       -4.7616559548       -0.2675851999
 H           1.0     3.9346929653       -2.6056486782       -0.4357897100
 H           1.0     3.6045200408        1.9823792529       -1.6165471989
 H           1.0     3.5053661182        1.7522862166        1.6745806840
 H           1.0    -0.2440959058        3.8556268300       -1.7778353120
 H           1.0    -0.0339016842        4.1644269537        1.5016140644

          INTERNUCLEAR DISTANCES (ANGS.)
          ------------------------------

                1 C          2 C          3 C          4 C          5 C     

   1 C       0.0000000    1.3396256 *  2.4251198 *  2.8406502 *  2.5734789 *
   2 C       1.3396256 *  0.0000000    1.4392927 *  2.4250232 *  2.9041249 *
   3 C       2.4251198 *  1.4392927 *  0.0000000    1.3393744 *  2.4954433 *
   4 C       2.8406502 *  2.4250232 *  1.3393744 *  0.0000000    1.5025811 *
   5 C       2.5734789 *  2.9041249 *  2.4954433 *  1.5025811 *  0.0000000  
   6 C       1.5023076 *  2.4951001 *  2.9033809 *  2.5734543 *  1.5420266 *
   7 H       1.0843421 *  2.0988393 *  3.4075383    3.9243043    3.5548130  
   8 H       2.1112643 *  1.0857290 *  2.1700276 *  3.3786956    3.9876934  
   9 H       3.3789533    2.1698564 *  1.0858144 *  2.1111736 *  3.4858771  
  10 H       3.9244283    3.4072900    2.0985529 *  1.0842858 *  2.2242913 *
  11 H       3.3588797    3.7369155    3.2362926    2.1250477 *  1.0946877 *
  12 H       3.2339494    3.5951032    3.1595701    2.1171667 *  1.0948590 *
  13 H       2.1151948 *  3.1514176    3.5870728    3.2320069    2.1649610 *
  14 H       2.1267131 *  3.2430427    3.7425277    3.3607355    2.1628695 *

                6 C          7 H          8 H          9 H         10 H     

   1 C       1.5023076 *  1.0843421 *  2.1112643 *  3.3789533    3.9244283  
   2 C       2.4951001 *  2.0988393 *  1.0857290 *  2.1698564 *  3.4072900  
   3 C       2.9033809 *  3.4075383    2.1700276 *  1.0858144 *  2.0985529 *
   4 C       2.5734543 *  3.9243043    3.3786956    2.1111736 *  1.0842858 *
   5 C       1.5420266 *  3.5548130    3.9876934    3.4858771    2.2242913 *
   6 C       0.0000000    2.2243657 *  3.4854562    3.9870557    3.5552016  
   7 H       2.2243657 *  0.0000000    2.4290383 *  4.2632186    5.0077844  
   8 H       3.4854562    2.4290383 *  0.0000000    2.4529111 *  4.2626766  
   9 H       3.9870557    4.2632186    2.4529111 *  0.0000000    2.4288837 *
  10 H       3.5552016    5.0077844    4.2626766    2.4288837 *  0.0000000  
  11 H       2.1621846 *  4.2778814    4.8095892    4.1373414    2.5130740 *
  12 H       2.1655111 *  4.1316709    4.6384695    4.0750847    2.5723448 *
  13 H       1.0949594 *  2.5763267 *  4.0665606    4.6300856    4.1333941  
  14 H       1.0948429 *  2.5101592 *  4.1443592    4.8155541    4.2774154  

               11 H         12 H         13 H         14 H     

   1 C       3.3588797    3.2339494    2.1151948 *  2.1267131 *
   2 C       3.7369155    3.5951032    3.1514176    3.2430427  
   3 C       3.2362926    3.1595701    3.5870728    3.7425277  
   4 C       2.1250477 *  2.1171667 *  3.2320069    3.3607355  
   5 C       1.0946877 *  1.0948590 *  2.1649610 *  2.1628695 *
   6 C       2.1621846 *  2.1655111 *  1.0949594 *  1.0948429 *
   7 H       4.2778814    4.1316709    2.5763267 *  2.5101592 *
   8 H       4.8095892    4.6384695    4.0665606    4.1443592  
   9 H       4.1373414    4.0750847    4.6300856    4.8155541  
  10 H       2.5130740 *  2.5723448 *  4.1333941    4.2774154  
  11 H       0.0000000    1.7466294 *  2.2666407 *  2.7862262 *
  12 H       1.7466294 *  0.0000000    2.9177628 *  2.2683599 *
  13 H       2.2666407 *  2.9177628 *  0.0000000    1.7466318 *
  14 H       2.7862262 *  2.2683599 *  1.7466318 *  0.0000000  

  * ... LESS THAN  3.000


     ATOMIC BASIS SET
     ----------------
 THE CONTRACTED PRIMITIVE FUNCTIONS HAVE BEEN UNNORMALIZED
 THE CONTRACTED BASIS FUNCTIONS ARE NOW NORMALIZED TO UNITY

  SHELL TYPE  PRIMITIVE        EXPONENT          CONTRACTION COEFFICIENT(S)

 C         

      1   S       1          3047.5248800    0.001834737132
      1   S       2           457.3695180    0.014037322813
      1   S       3           103.9486850    0.068842622264
      1   S       4            29.2101553    0.232184443216
      1   S       5             9.2866630    0.467941348435
      1   S       6             3.1639270    0.362311985337

      2   L       7             7.8682723   -0.119332419775    0.068999066591
      2   L       8             1.8812885   -0.160854151696    0.316423960957
      2   L       9             0.5442493    1.143456437840    0.744308290898

      3   L      10             0.1687145    1.000000000000    1.000000000000

      4   D      11             0.8000000    1.000000000000

 C         

      5   S      12          3047.5248800    0.001834737132
      5   S      13           457.3695180    0.014037322813
      5   S      14           103.9486850    0.068842622264
      5   S      15            29.2101553    0.232184443216
      5   S      16             9.2866630    0.467941348435
      5   S      17             3.1639270    0.362311985337

      6   L      18             7.8682723   -0.119332419775    0.068999066591
      6   L      19             1.8812885   -0.160854151696    0.316423960957
      6   L      20             0.5442493    1.143456437840    0.744308290898

      7   L      21             0.1687145    1.000000000000    1.000000000000

      8   D      22             0.8000000    1.000000000000

 C         

      9   S      23          3047.5248800    0.001834737132
      9   S      24           457.3695180    0.014037322813
      9   S      25           103.9486850    0.068842622264
      9   S      26            29.2101553    0.232184443216
      9   S      27             9.2866630    0.467941348435
      9   S      28             3.1639270    0.362311985337

     10   L      29             7.8682723   -0.119332419775    0.068999066591
     10   L      30             1.8812885   -0.160854151696    0.316423960957
     10   L      31             0.5442493    1.143456437840    0.744308290898

     11   L      32             0.1687145    1.000000000000    1.000000000000

     12   D      33             0.8000000    1.000000000000

 C         

     13   S      34          3047.5248800    0.001834737132
     13   S      35           457.3695180    0.014037322813
     13   S      36           103.9486850    0.068842622264
     13   S      37            29.2101553    0.232184443216
     13   S      38             9.2866630    0.467941348435
     13   S      39             3.1639270    0.362311985337

     14   L      40             7.8682723   -0.119332419775    0.068999066591
     14   L      41             1.8812885   -0.160854151696    0.316423960957
     14   L      42             0.5442493    1.143456437840    0.744308290898

     15   L      43             0.1687145    1.000000000000    1.000000000000

     16   D      44             0.8000000    1.000000000000

 C         

     17   S      45          3047.5248800    0.001834737132
     17   S      46           457.3695180    0.014037322813
     17   S      47           103.9486850    0.068842622264
     17   S      48            29.2101553    0.232184443216
     17   S      49             9.2866630    0.467941348435
     17   S      50             3.1639270    0.362311985337

     18   L      51             7.8682723   -0.119332419775    0.068999066591
     18   L      52             1.8812885   -0.160854151696    0.316423960957
     18   L      53             0.5442493    1.143456437840    0.744308290898

     19   L      54             0.1687145    1.000000000000    1.000000000000

     20   D      55             0.8000000    1.000000000000

 C         

     21   S      56          3047.5248800    0.001834737132
     21   S      57           457.3695180    0.014037322813
     21   S      58           103.9486850    0.068842622264
     21   S      59            29.2101553    0.232184443216
     21   S      60             9.2866630    0.467941348435
     21   S      61             3.1639270    0.362311985337

     22   L      62             7.8682723   -0.119332419775    0.068999066591
     22   L      63             1.8812885   -0.160854151696    0.316423960957
     22   L      64             0.5442493    1.143456437840    0.744308290898

     23   L      65             0.1687145    1.000000000000    1.000000000000

     24   D      66             0.8000000    1.000000000000

 H         

     25   S      67            18.7311370    0.033494604338
     25   S      68             2.8253944    0.234726953484
     25   S      69             0.6401217    0.813757326146

     26   S      70             0.1612778    1.000000000000

 H         

     27   S      71            18.7311370    0.033494604338
     27   S      72             2.8253944    0.234726953484
     27   S      73             0.6401217    0.813757326146

     28   S      74             0.1612778    1.000000000000

 H         

     29   S      75            18.7311370    0.033494604338
     29   S      76             2.8253944    0.234726953484
     29   S      77             0.6401217    0.813757326146

     30   S      78             0.1612778    1.000000000000

 H         

     31   S      79            18.7311370    0.033494604338
     31   S      80             2.8253944    0.234726953484
     31   S      81             0.6401217    0.813757326146

     32   S      82             0.1612778    1.000000000000

 H         

     33   S      83            18.7311370    0.033494604338
     33   S      84             2.8253944    0.234726953484
     33   S      85             0.6401217    0.813757326146

     34   S      86             0.1612778    1.000000000000

 H         

     35   S      87            18.7311370    0.033494604338
     35   S      88             2.8253944    0.234726953484
     35   S      89             0.6401217    0.813757326146

     36   S      90             0.1612778    1.000000000000

 H         

     37   S      91            18.7311370    0.033494604338
     37   S      92             2.8253944    0.234726953484
     37   S      93             0.6401217    0.813757326146

     38   S      94             0.1612778    1.000000000000

 H         

     39   S      95            18.7311370    0.033494604338
     39   S      96             2.8253944    0.234726953484
     39   S      97             0.6401217    0.813757326146

     40   S      98             0.1612778    1.000000000000

 TOTAL NUMBER OF BASIS SET SHELLS             =   40
 NUMBER OF CARTESIAN GAUSSIAN BASIS FUNCTIONS =  106
 NUMBER OF ELECTRONS                          =   44
 CHARGE OF MOLECULE                           =    0
 SPIN MULTIPLICITY                            =    1
 NUMBER OF OCCUPIED ORBITALS (ALPHA)          =   22
 NUMBER OF OCCUPIED ORBITALS (BETA )          =   22
 TOTAL NUMBER OF ATOMS                        =   14
 THE NUCLEAR REPULSION ENERGY IS      218.5872488473

 SELECTED MURRAY-HANDY-LAMING RADIAL GRID

 LEGACY BECKE'S FUZZY CELL METHOD

 SELECTED ORIGINAL BECKE'S PARTITION FUNCTION

     LEBEDEV GRID-BASED DFT OPTIONS
     ------------------------------
     DFTTYP=B3LYP   
     NRAD  =      96     NLEB  =     590
     NRAD0 =      24     NLEB0 =     110
     SWOFF =    5.00E-03 (PURE SCF -> DFT)
     SWITCH=    3.00E-04 (COARSE -> TIGHT GRID)
     THRESH=    0.00E+00 GTHRE=    1.00E+00

 GRIMME'S EMPIRICAL DISPERSION CORRECTION= F

     $CONTRL OPTIONS
     ---------------
 SCFTYP=RHF          RUNTYP=ENERGY       EXETYP=RUN     
 MPLEVL=       0     CITYP =NONE         CCTYP =NONE         VBTYP =NONE    
 DFTTYP=B3LYP        TDDFT =NONE    
 MULT  =       1     ICHARG=       0     NZVAR =       0     COORD =UNIQUE  
 PP    =NONE         RELWFN=NONE         LOCAL =NONE         NUMGRD=       F
 ISPHER=      -1     NOSYM =       0     MAXIT =     200     UNITS =ANGS    
 PLTORB=       F     MOLPLT=       F     AIMPAC=       F     FRIEND=        
 NPRINT=       7     IREST =       0     GEOM  =INPUT   
 NORMF =       0     NORMP =       0     ITOL  =      20     ICUT  =       9
 INTTYP=BEST         GRDTYP=BEST         QMTTOL= 1.0E-06

     $SYSTEM OPTIONS
     ---------------
  REPLICATED MEMORY=   250000000 WORDS (ON EVERY NODE).
 DISTRIBUTED MEMDDI=           0 MILLION WORDS IN AGGREGATE,
 MEMDDI DISTRIBUTED OVER   1 PROCESSORS IS           0 WORDS/PROCESSOR.
 TOTAL MEMORY REQUESTED ON EACH PROCESSOR=   250000000 WORDS.
 TIMLIM=        2879.00 MINUTES, OR       2.0 DAYS.
 PARALL= F  BALTYP=  DLB     KDIAG=    0  COREFL= F
 MXSEQ2=     300 MXSEQ3=     150  mem10=         0

          ----------------
          PROPERTIES INPUT
          ----------------

     MOMENTS            FIELD           POTENTIAL          DENSITY
 IEMOM =       1   IEFLD =       0   IEPOT =       0   IEDEN =       0
 WHERE =COMASS     WHERE =NUCLEI     WHERE =NUCLEI     WHERE =NUCLEI  
 OUTPUT=BOTH       OUTPUT=BOTH       OUTPUT=BOTH       OUTPUT=BOTH    
 IEMINT=       0   IEFINT=       0                     IEDINT=       0
                                                       MORB  =       0
          EXTRAPOLATION IN EFFECT
          DIIS IN EFFECT
 ORBITAL PRINTING OPTION: NPREO=     1   106     2     1

     -------------------------------
     INTEGRAL TRANSFORMATION OPTIONS
     -------------------------------
     NWORD  =            0
     CUTOFF = 1.0E-09     MPTRAN =       0
     DIRTRF =       T     AOINTS =DUP     

          ----------------------
          INTEGRAL INPUT OPTIONS
          ----------------------
 NOPK  =       1 NORDER=       0 SCHWRZ=       T

     ------------------------------------------
     THE POINT GROUP IS C1 , NAXIS= 0, ORDER= 1
     ------------------------------------------

     DIMENSIONS OF THE SYMMETRY SUBSPACES ARE
 A   =  106

 ..... DONE SETTING UP THE RUN .....
 STEP CPU TIME =     0.01 TOTAL CPU TIME =          0.0 (      0.0 MIN)
 TOTAL WALL CLOCK TIME=          0.0 SECONDS, CPU UTILIZATION IS    33.33%

          ********************
          1 ELECTRON INTEGRALS
          ********************
 ...... END OF ONE-ELECTRON INTEGRALS ......
 STEP CPU TIME =     0.01 TOTAL CPU TIME =          0.0 (      0.0 MIN)
 TOTAL WALL CLOCK TIME=          0.0 SECONDS, CPU UTILIZATION IS    40.00%

          -------------
          GUESS OPTIONS
          -------------
          GUESS =HUCKEL            NORB  =       0          NORDER=       0
          MIX   =       F          PRTMO =       F          PUNMO =       F
          TOLZ  = 1.0E-08          TOLE  = 1.0E-05
          SYMDEN=       F          PURIFY=       F

 INITIAL GUESS ORBITALS GENERATED BY HUCKEL   ROUTINE.
 HUCKEL GUESS REQUIRES     97814 WORDS.

 SYMMETRIES FOR INITIAL GUESS ORBITALS FOLLOW.   BOTH SET(S).
    22 ORBITALS ARE OCCUPIED (    6 CORE ORBITALS).
     7=A        8=A        9=A       10=A       11=A       12=A       13=A   
    14=A       15=A       16=A       17=A       18=A       19=A       20=A   
    21=A       22=A       23=A       24=A       25=A       26=A       27=A   
    28=A       29=A       30=A       31=A       32=A   
 ...... END OF INITIAL ORBITAL SELECTION ......
 STEP CPU TIME =     0.01 TOTAL CPU TIME =          0.0 (      0.0 MIN)
 TOTAL WALL CLOCK TIME=          0.1 SECONDS, CPU UTILIZATION IS    50.00%

                    ----------------------
                    AO INTEGRAL TECHNOLOGY
                    ----------------------
     S,P,L SHELL ROTATED AXIS INTEGRALS, REPROGRAMMED BY
        KAZUYA ISHIMURA (IMS) AND JOSE SIERRA (SYNSTAR).
     S,P,D,L SHELL ROTATED AXIS INTEGRALS PROGRAMMED BY
        KAZUYA ISHIMURA (INSTITUTE FOR MOLECULAR SCIENCE).
     S,P,D,F,G SHELL TO TOTAL QUARTET ANGULAR MOMENTUM SUM 5,
        ERIC PROGRAM BY GRAHAM FLETCHER (ELORET AND NASA ADVANCED
        SUPERCOMPUTING DIVISION, AMES RESEARCH CENTER).
     S,P,D,F,G,L SHELL GENERAL RYS QUADRATURE PROGRAMMED BY
        MICHEL DUPUIS (PACIFIC NORTHWEST NATIONAL LABORATORY).

          --------------------
          2 ELECTRON INTEGRALS
          --------------------

 DIRECT SCF METHOD SKIPS INTEGRAL STORAGE ON DISK.
 DIRECT TRANSFORMATION SKIPS AO INTEGRAL STORAGE ON DISK.
  ...... END OF TWO-ELECTRON INTEGRALS .....
 STEP CPU TIME =     0.00 TOTAL CPU TIME =          0.0 (      0.0 MIN)
 TOTAL WALL CLOCK TIME=          0.1 SECONDS, CPU UTILIZATION IS    42.86%

          --------------------------
             R-B3LYP SCF CALCULATION
          --------------------------

     NUCLEAR ENERGY =       218.5872488473
     MAXIT =  200     NPUNCH=    2
     EXTRAP=T  DAMP=F  SHIFT=F  RSTRCT=F  DIIS=T  DEM=F  SOSCF=F
         DENSITY MATRIX CONVERGENCE THRESHOLD=  2.00E-05
     COARSE -> FINE DFT GRID SWITCH THRESHOLD=  3.00E-04 (SWITCH IN $DFT)
                   HF -> DFT SWITCH THRESHOLD=  5.00E-03 (SWOFF IN $DFT)
     MEMORY REQUIRED FOR RHF ITERS=   1026830 WORDS.

 DIRECT SCF CALCULATION, SCHWRZ=T   FDIFF=T,  DIRTHR=  0.00E+00 NITDIR=10
 SCHWARZ INEQUALITY OVERHEAD:      5666 INTEGRALS, T=        0.02

 DFT CODE IS SWITCHING FROM THE FINE GRID NRAD= 96,  NLEB=  590
                      TO THE COARSE GRID NRAD0= 24, NLEB0=  110

     EXCHANGE FUNCTIONAL   =B88&HFX   
     CORRELATION FUNCTIONAL=LYP88&VWN5
     DFT THRESHOLD         =.504E-08
     GRID CHANGE THRESHOLD =.300E-03
 FOR AN EULER-MACLAURIN QUADRATURE USING  96 RADIAL POINTS:
 SMALLEST GAUSSIAN PRIMITIVE EXPONENT=        0.1612777588 OF TYPE -S-
 ON ATOM NUMBER   7 HAS RADIAL NORMALIZATION=  1.000000
  LARGEST GAUSSIAN PRIMITIVE EXPONENT=     3047.5248800000 OF TYPE -S-
 ON ATOM NUMBER   1 HAS RADIAL NORMALIZATION=  1.000000
 DFT IS SWITCHED OFF, PERFORMING PURE SCF UNTIL SWOFF THRESHOLD IS REACHED.

                                                                                   NONZERO     BLOCKS
 ITER EX DEM     TOTAL ENERGY        E CHANGE  DENSITY CHANGE    DIIS ERROR      INTEGRALS    SKIPPED
          * * *   INITIATING DIIS PROCEDURE   * * *
   1  0  0     -231.2870017258  -231.2870017258   0.142725498   0.396196824       15278994      45255
   2  1  0     -231.7943375203    -0.5073357945   0.059318802   0.073944667       15271903      48613
   3  2  0     -231.8213483327    -0.0270108124   0.016602519   0.029808757       15208125      53781
   4  3  0     -231.8264916469    -0.0051433142   0.006625990   0.005563770       15097402      60470
   5  4  0     -231.8268437020    -0.0003520551   0.001717234   0.002176792       14967928      65860
 CONVERGED TO SWOFF, SO DFT CALCULATION IS NOW SWITCHED ON.
          * * *   INITIATING DIIS PROCEDURE   * * *
   6  5  0     -233.2230614860    -1.3962177839   0.076457601   0.097394166       15280541      45392
   7  6  0     -233.2481256163    -0.0250641303   0.035214360   0.021891254       15234387      51721
   8  7  0     -233.2483395229    -0.0002139067   0.015987010   0.021216935       15123171      57305
   9  8  0     -233.2516730599    -0.0033335370   0.001434536   0.001334801       15057159      61109
  10  9  0     -233.2516842575    -0.0000111976   0.000705071   0.000659491       14650284      79789
  11 10  0     -233.2516861013    -0.0000018437   0.000336268   0.000299623       14310479      92068
  12 11  0     -233.2516865654    -0.0000004642   0.000082875   0.000099528       14073834     101275
 DFT CODE IS SWITCHING BACK TO THE FINE GRID
          * * *   INITIATING DIIS PROCEDURE   * * *
  13 12  0     -233.2537824748    -0.0020959093   0.001633703   0.000962639       15283510      44795
  14 13  0     -233.2537887155    -0.0000062408   0.000233851   0.000177216       14710991      77043
  15 14  0     -233.2537887466    -0.0000000311   0.000159439   0.000157631       14238833      94790
  16 15  0     -233.2537889567    -0.0000002101   0.000061769   0.000045526       14001747     102771
  17 16  0     -233.2537889653    -0.0000000086   0.000023686   0.000020427       13343759     124564
  18 17  0     -233.2537889676    -0.0000000023   0.000002000   0.000001317       12841066     137991

          -----------------
          DENSITY CONVERGED
          -----------------
     TIME TO FORM FOCK OPERATORS=      27.2 SECONDS (       1.5 SEC/ITER)
     FOCK TIME ON FIRST ITERATION=       0.5, LAST ITERATION=       3.2
     TIME TO SOLVE SCF EQUATIONS=       0.1 SECONDS (       0.0 SEC/ITER)

 FINAL R-B3LYP ENERGY IS     -233.2537889676 AFTER  18 ITERATIONS
 DFT EXCHANGE + CORRELATION ENERGY =       -28.6110524111
 TOTAL ELECTRON NUMBER             =        44.0000185401

          ------------
          EIGENVECTORS
          ------------

                      1          2          3          4          5
                  -10.1807   -10.1805   -10.1748   -10.1748   -10.1697
                     A          A          A          A          A   
    1  C  1  S    0.014328   0.016313  -0.128912   0.980943  -0.057742
    2  C  1  S    0.000493   0.000433  -0.006642   0.048990  -0.003353
    3  C  1  X   -0.000211  -0.000091  -0.000093   0.000192  -0.000068
    4  C  1  Y   -0.000049  -0.000044  -0.000019   0.000059   0.000275
    5  C  1  Z    0.000012   0.000018   0.000015  -0.000026   0.000020
    6  C  1  S    0.002552   0.007089   0.004678  -0.016508   0.004314
    7  C  1  X    0.001800   0.004014   0.001673  -0.002741   0.000688
    8  C  1  Y    0.000989  -0.000080  -0.000982   0.001545  -0.001698
    9  C  1  Z   -0.000167  -0.000469  -0.000184   0.000380  -0.000134
   10  C  1 XX   -0.000334  -0.000401   0.001185  -0.009263   0.000408
   11  C  1 YY   -0.000291  -0.000330   0.001186  -0.008996   0.000374
   12  C  1 ZZ   -0.000298  -0.000321   0.001143  -0.009432   0.000427
   13  C  1 XY   -0.000139  -0.000123   0.000014  -0.000006  -0.000039
   14  C  1 XZ    0.000016  -0.000000   0.000003  -0.000025   0.000002
   15  C  1 YZ    0.000009   0.000033   0.000009   0.000006   0.000006
   16  C  2  S    0.000304   0.000748  -0.007437   0.078646   0.693291
   17  C  2  S   -0.000124   0.000245  -0.000250   0.003212   0.034497
   18  C  2  X   -0.000062   0.000023  -0.000066  -0.000052  -0.000035
   19  C  2  Y   -0.000089  -0.000044   0.000078  -0.000377   0.000094
   20  C  2  Z    0.000002   0.000014   0.000010  -0.000003   0.000005
   21  C  2  S    0.000556  -0.004557  -0.003595   0.006227  -0.007821
   22  C  2  X   -0.000127  -0.002934  -0.001541   0.001832   0.000059
   23  C  2  Y    0.000302  -0.000885  -0.001394   0.002950  -0.001321
   24  C  2  Z    0.000007   0.000288   0.000135  -0.000162  -0.000002
   25  C  2 XX   -0.000021   0.000014   0.000156  -0.000976  -0.006809
   26  C  2 YY    0.000024   0.000039   0.000099  -0.001047  -0.006610
   27  C  2 ZZ   -0.000097   0.000060   0.000108  -0.000965  -0.006835
   28  C  2 XY   -0.000036   0.000006   0.000001   0.000045   0.000089
   29  C  2 XZ   -0.000012   0.000000  -0.000001   0.000003   0.000001
   30  C  2 YZ    0.000003  -0.000003   0.000007  -0.000010  -0.000013
   31  C  3  S    0.000369  -0.000719   0.077875   0.013107   0.705609
   32  C  3  S   -0.000102  -0.000258   0.003165   0.000588   0.035124
   33  C  3  X   -0.000051   0.000046  -0.000318   0.000019   0.000096
   34  C  3  Y   -0.000098  -0.000009  -0.000219  -0.000078   0.000022
   35  C  3  Z    0.000001   0.000014   0.000014  -0.000010  -0.000003
   36  C  3  S    0.000145   0.004600   0.006948  -0.001867  -0.008166
   37  C  3  X    0.000384  -0.000644   0.001722  -0.000004  -0.001169
   38  C  3  Y   -0.000229   0.002997   0.003477  -0.001176  -0.000709
   39  C  3  Z   -0.000032   0.000227   0.000096  -0.000057   0.000009
   40  C  3 XX    0.000042  -0.000026  -0.001056  -0.000166  -0.006831
   41  C  3 YY   -0.000034  -0.000028  -0.000964  -0.000109  -0.006807
   42  C  3 ZZ   -0.000092  -0.000069  -0.000960  -0.000144  -0.006951
   43  C  3 XY    0.000004  -0.000014  -0.000004  -0.000029   0.000144
   44  C  3 XZ   -0.000009  -0.000006   0.000010  -0.000003   0.000007
   45  C  3 YZ    0.000006   0.000000   0.000004  -0.000001  -0.000000
   46  C  4  S    0.015734  -0.014904   0.981014   0.128397  -0.058666
   47  C  4  S    0.000530  -0.000382   0.049048   0.006215  -0.003410
   48  C  4  X    0.000063  -0.000002  -0.000050   0.000017   0.000276
   49  C  4  Y   -0.000216   0.000083   0.000213  -0.000038   0.000077
   50  C  4  Z   -0.000008   0.000015   0.000019  -0.000009  -0.000023
   51  C  4  S    0.003183  -0.006845  -0.017162   0.000260   0.004485
   52  C  4  X   -0.000218   0.002050   0.003042  -0.000926  -0.001891
   53  C  4  Y    0.002365  -0.003266  -0.001825   0.000523  -0.000216
   54  C  4  Z    0.000141  -0.000368  -0.000364   0.000066   0.000159
   55  C  4 XX   -0.000220   0.000237  -0.009054  -0.001200   0.000415
   56  C  4 YY   -0.000469   0.000435  -0.009199  -0.001218   0.000374
   57  C  4 ZZ   -0.000325   0.000293  -0.009409  -0.001328   0.000434
   58  C  4 XY   -0.000052   0.000024   0.000123   0.000041  -0.000038
   59  C  4 XZ   -0.000002   0.000026  -0.000021  -0.000012  -0.000005
   60  C  4 YZ   -0.000014   0.000010   0.000012  -0.000006  -0.000003
   61  C  5  S    0.733354  -0.669257  -0.021841  -0.002387   0.000892
   62  C  5  S    0.036928  -0.034485  -0.001464  -0.000051  -0.000008
   63  C  5  X    0.000037   0.000056   0.000074   0.000075   0.000009
   64  C  5  Y   -0.000047  -0.000030   0.000234   0.000039   0.000049
   65  C  5  Z    0.000006   0.000011   0.000038  -0.000038  -0.000005
   66  C  5  S   -0.011610   0.020854   0.006054  -0.001530  -0.000432
   67  C  5  X   -0.000518  -0.003546  -0.001892   0.000810   0.000192
   68  C  5  Y    0.001256  -0.000424  -0.002239   0.000126   0.000165
   69  C  5  Z    0.000038  -0.000101  -0.000173   0.000210   0.000037
   70  C  5 XX   -0.006902   0.005803   0.000101   0.000019   0.000000
   71  C  5 YY   -0.006827   0.005853  -0.000296  -0.000019   0.000043
   72  C  5 ZZ   -0.006630   0.005776   0.000077   0.000003  -0.000043
   73  C  5 XY    0.000122   0.000135   0.000051  -0.000002  -0.000001
   74  C  5 XZ   -0.000001   0.000015   0.000013  -0.000001  -0.000005
   75  C  5 YZ   -0.000007   0.000016  -0.000029  -0.000014   0.000012
   76  C  6  S    0.668997   0.733591   0.003330  -0.021756   0.000885
   77  C  6  S    0.033616   0.037720   0.000330  -0.001427  -0.000016
   78  C  6  X   -0.000064   0.000047  -0.000045   0.000159   0.000037
   79  C  6  Y    0.000012  -0.000033   0.000036   0.000195   0.000032
   80  C  6  Z   -0.000009   0.000007   0.000044  -0.000037   0.000007
   81  C  6  S   -0.009652  -0.021823  -0.003053   0.005444  -0.000345
   82  C  6  X    0.001473  -0.001262  -0.000030  -0.001054   0.000051
   83  C  6  Y   -0.000129   0.003286   0.001446  -0.002449   0.000207
   84  C  6  Z   -0.000042  -0.000149  -0.000269   0.000200  -0.000053
   85  C  6 XX   -0.006381  -0.006351   0.000053  -0.000229   0.000031
   86  C  6 YY   -0.006223  -0.006511  -0.000002   0.000043   0.000009
   87  C  6 ZZ   -0.006074  -0.006361  -0.000016   0.000075  -0.000044
   88  C  6 XY    0.000108  -0.000083   0.000025  -0.000169   0.000019
   89  C  6 XZ    0.000007   0.000009   0.000000   0.000047  -0.000014
   90  C  6 YZ    0.000006   0.000029   0.000007   0.000008  -0.000004
   91  H  7  S   -0.000051   0.000024   0.000096  -0.000413   0.000017
   92  H  7  S    0.000381   0.000680   0.000220   0.001346   0.000204
   93  H  8  S   -0.000028  -0.000103  -0.000055   0.000002  -0.000304
   94  H  8  S    0.000117  -0.000680  -0.000367   0.000774   0.001188
   95  H  9  S   -0.000037   0.000101   0.000017  -0.000053  -0.000309
   96  H  9  S    0.000056   0.000693   0.000843  -0.000154   0.001190
   97  H 10  S   -0.000049  -0.000029  -0.000424  -0.000013   0.000019
   98  H 10  S    0.000443  -0.000645   0.001244   0.000559   0.000215
   99  H 11  S   -0.000062  -0.000269  -0.000182   0.000063   0.000016
  100  H 11  S    0.002008  -0.002028   0.000396   0.000054   0.000008
  101  H 12  S   -0.000074  -0.000296  -0.000219   0.000030   0.000013
  102  H 12  S    0.002087  -0.001933   0.000550  -0.000169  -0.000048
  103  H 13  S   -0.000099   0.000291   0.000089  -0.000206   0.000009
  104  H 13  S    0.001904   0.002126  -0.000300   0.000495  -0.000052
  105  H 14  S   -0.000087   0.000258   0.000105  -0.000156   0.000014
  106  H 14  S    0.001810   0.002193  -0.000054   0.000387   0.000017

                      6          7          8          9         10
                  -10.1694    -0.8269    -0.7364    -0.7327    -0.6118
                     A          A          A          A          A   
    1  C  1  S   -0.054725  -0.092889   0.013156  -0.126539  -0.018335
    2  C  1  S   -0.003271   0.176427  -0.025308   0.245960   0.036583
    3  C  1  X   -0.000068   0.040520   0.043947   0.007698  -0.082018
    4  C  1  Y    0.000201  -0.035063   0.101112  -0.022670  -0.158431
    5  C  1  Z    0.000007  -0.005622  -0.003142  -0.002655   0.009723
    6  C  1  S    0.008597   0.114579  -0.023001   0.195765   0.042786
    7  C  1  X    0.002653   0.004764   0.004414  -0.000155  -0.018152
    8  C  1  Y   -0.002723   0.000075   0.021363   0.002186  -0.040113
    9  C  1  Z   -0.000335  -0.000587  -0.000306  -0.000118   0.002357
   10  C  1 XX    0.000300   0.001798   0.007324   0.000623  -0.006239
   11  C  1 YY    0.000186   0.003718  -0.005298   0.003181   0.004120
   12  C  1 ZZ    0.000379  -0.010000   0.001568  -0.012212  -0.001707
   13  C  1 XY   -0.000036   0.000411   0.006291   0.000825  -0.005859
   14  C  1 XZ    0.000014  -0.001651  -0.000707  -0.001943   0.000883
   15  C  1 YZ    0.000003   0.000221  -0.000974   0.000194   0.000951
   16  C  2  S    0.706206  -0.096631   0.105425  -0.070669  -0.080588
   17  C  2  S    0.035837   0.183948  -0.205408   0.140069   0.163152
   18  C  2  X    0.000388   0.046490  -0.036484  -0.040982  -0.080819
   19  C  2  Y   -0.000032   0.033277   0.022873   0.095252   0.063002
   20  C  2  Z   -0.000047  -0.004810   0.005336   0.006027   0.011971
   21  C  2  S   -0.018686   0.119589  -0.145104   0.087346   0.119979
   22  C  2  X   -0.005159   0.004793  -0.000917  -0.025185  -0.039921
   23  C  2  Y   -0.002120   0.001517   0.012902   0.001188  -0.007042
   24  C  2  Z    0.000544  -0.000416   0.000563   0.002604   0.004841
   25  C  2 XX   -0.006362   0.002616  -0.004337  -0.007310  -0.004493
   26  C  2 YY   -0.006210   0.003036   0.000542   0.006821   0.000760
   27  C  2 ZZ   -0.006656  -0.010500   0.010491  -0.006383  -0.006635
   28  C  2 XY   -0.000191  -0.000496   0.002890   0.004239   0.005591
   29  C  2 XZ   -0.000049  -0.001806   0.002202   0.000108  -0.000116
   30  C  2 YZ    0.000046   0.000428  -0.000623  -0.000218  -0.000395
   31  C  3  S   -0.693901  -0.096671   0.106035   0.069785   0.080430
   32  C  3  S   -0.035226   0.184033  -0.206609  -0.138344  -0.162818
   33  C  3  X    0.000220   0.006068   0.036928  -0.103394  -0.095010
   34  C  3  Y   -0.000322   0.056939  -0.020578  -0.011134   0.039264
   35  C  3  Z   -0.000045   0.003877  -0.005727   0.007128   0.011690
   36  C  3  S    0.018550   0.119497  -0.145824  -0.086104  -0.119696
   37  C  3  X   -0.000721  -0.001028   0.011566  -0.013568  -0.013674
   38  C  3  Y    0.005531   0.004779   0.005784   0.021323   0.038211
   39  C  3  Z    0.000455   0.000369  -0.000869   0.002245   0.004093
   40  C  3 XX    0.005986   0.003278  -0.002774  -0.000200   0.004667
   41  C  3 YY    0.006348   0.002385  -0.001036   0.000718  -0.000952
   42  C  3 ZZ    0.006535  -0.010520   0.010570   0.006303   0.006647
   43  C  3 XY    0.000026  -0.000055   0.003836  -0.009208  -0.005480
   44  C  3 XZ    0.000069  -0.001420   0.001707  -0.000040  -0.000220
   45  C  3 YZ   -0.000013   0.001058  -0.001367   0.000246  -0.000018
   46  C  4  S    0.053694  -0.092925   0.014226   0.126425   0.018478
   47  C  4  S    0.003211   0.176477  -0.027387  -0.245735  -0.036878
   48  C  4  X   -0.000203  -0.050519   0.066427   0.022959   0.097198
   49  C  4  Y   -0.000039   0.017976   0.088324   0.003783   0.149818
   50  C  4  Z    0.000008   0.005272   0.000215  -0.002518   0.004928
   51  C  4  S   -0.008521   0.114787  -0.024690  -0.195571  -0.042952
   52  C  4  X    0.003646  -0.002349   0.016409  -0.002115   0.025864
   53  C  4  Y   -0.000972   0.004280   0.014390  -0.001072   0.035673
   54  C  4  Z   -0.000328   0.000484  -0.000197  -0.000008   0.001190
   55  C  4 XX   -0.000234   0.002940  -0.006905  -0.001886  -0.005940
   56  C  4 YY   -0.000239   0.002629   0.008960  -0.002005   0.008134
   57  C  4 ZZ   -0.000372  -0.010057   0.001617   0.012269   0.001657
   58  C  4 XY    0.000074   0.001142  -0.003041  -0.001639  -0.002116
   59  C  4 XZ   -0.000007  -0.001099   0.000633   0.001189   0.000449
   60  C  4 YZ    0.000012   0.000892   0.000834  -0.001093   0.000963
   61  C  5  S   -0.000579  -0.088260  -0.111152   0.066638  -0.099996
   62  C  5  S   -0.000294   0.164958   0.215174  -0.128614   0.202618
   63  C  5  X   -0.000010  -0.034787  -0.021094  -0.035186   0.100915
   64  C  5  Y   -0.000060  -0.021097   0.042176   0.070752  -0.033231
   65  C  5  Z    0.000003  -0.000970   0.000507   0.004339   0.001177
   66  C  5  S    0.003812   0.127514   0.181840  -0.110636   0.192140
   67  C  5  X   -0.001448  -0.006172  -0.000618  -0.010823   0.042859
   68  C  5  Y   -0.000699  -0.002869   0.012532   0.012592  -0.007645
   69  C  5  Z   -0.000071   0.000711  -0.000405   0.000500   0.001097
   70  C  5 XX   -0.000039   0.001289   0.002548   0.006817  -0.006756
   71  C  5 YY   -0.000083   0.002124  -0.004261  -0.005637  -0.005245
   72  C  5 ZZ   -0.000066  -0.003184   0.000400   0.000196   0.005612
   73  C  5 XY   -0.000006  -0.000193  -0.004209  -0.004669   0.006272
   74  C  5 XZ    0.000011  -0.000035  -0.000143  -0.000181  -0.000107
   75  C  5 YZ    0.000002   0.000253  -0.000448  -0.000421  -0.000585
   76  C  6  S    0.000596  -0.088280  -0.111645  -0.065749   0.099964
   77  C  6  S    0.000295   0.164967   0.216125   0.126897  -0.202544
   78  C  6  X    0.000049  -0.001111   0.046449  -0.079258   0.079017
   79  C  6  Y    0.000039  -0.040647   0.002460  -0.004396  -0.071047
   80  C  6  Z    0.000004   0.001951  -0.001432   0.005649   0.002010
   81  C  6  S   -0.003823   0.127713   0.182626   0.109162  -0.192096
   82  C  6  X   -0.000110   0.000527   0.011084  -0.016402   0.027923
   83  C  6  Y    0.001604  -0.006898   0.005728   0.003118  -0.033364
   84  C  6  Z   -0.000129  -0.000686   0.000008   0.000459   0.001521
   85  C  6 XX    0.000068   0.002056   0.000557  -0.000907   0.010266
   86  C  6 YY    0.000055   0.001339  -0.002235  -0.000287   0.001680
   87  C  6 ZZ    0.000066  -0.003176   0.000355  -0.000172  -0.005555
   88  C  6 XY    0.000026   0.000309  -0.005437   0.008596  -0.003981
   89  C  6 XZ   -0.000007  -0.000333   0.000475  -0.000494  -0.000664
   90  C  6 YZ    0.000011  -0.000235   0.000534  -0.000498  -0.000574
   91  H  7  S    0.000066   0.037449  -0.005242   0.076526   0.012895
   92  H  7  S    0.000483   0.004076  -0.003095   0.017035   0.004991
   93  H  8  S   -0.000325   0.038089  -0.061652   0.039982   0.076834
   94  H  8  S    0.000287   0.003785  -0.012611   0.001308   0.022186
   95  H  9  S    0.000319   0.038096  -0.061986  -0.039451  -0.076630
   96  H  9  S   -0.000266   0.003737  -0.012608  -0.001196  -0.022117
   97  H 10  S   -0.000066   0.037477  -0.005873  -0.076510  -0.012994
   98  H 10  S   -0.000480   0.004104  -0.003243  -0.017019  -0.005025
   99  H 11  S   -0.000102   0.041758   0.071582  -0.042553   0.094897
  100  H 11  S    0.000021   0.004401   0.016075  -0.007966   0.034937
  101  H 12  S   -0.000109   0.042410   0.070396  -0.042148   0.095025
  102  H 12  S    0.000090   0.003516   0.016330  -0.007204   0.034135
  103  H 13  S    0.000108   0.042500   0.070701   0.041637  -0.094938
  104  H 13  S   -0.000097   0.003462   0.016361   0.006996  -0.034128
  105  H 14  S    0.000102   0.041658   0.071852   0.041885  -0.094844
  106  H 14  S   -0.000012   0.004465   0.016120   0.007905  -0.034885

                     11         12         13         14         15
                   -0.5836    -0.4968    -0.4645    -0.4496    -0.4172
                     A          A          A          A          A   
    1  C  1  S   -0.103520   0.005256  -0.061273   0.022099   0.002752
    2  C  1  S    0.210779  -0.011381   0.128680  -0.045735  -0.006037
    3  C  1  X   -0.061568   0.183496  -0.073058   0.039227  -0.109606
    4  C  1  Y    0.034084  -0.101582   0.114551  -0.025605  -0.257835
    5  C  1  Z    0.007682  -0.023051   0.040471   0.082426   0.016636
    6  C  1  S    0.170368  -0.025321   0.124495  -0.056025  -0.026390
    7  C  1  X   -0.031242   0.066675  -0.033856   0.012896  -0.043225
    8  C  1  Y    0.027964  -0.029811   0.054068  -0.013055  -0.077154
    9  C  1  Z    0.004366  -0.007897   0.018209   0.038661   0.007931
   10  C  1 XX    0.001951  -0.003212   0.007073  -0.001061  -0.005811
   11  C  1 YY   -0.005344  -0.001231  -0.009009   0.003529   0.003648
   12  C  1 ZZ   -0.008625  -0.000366  -0.005029   0.000394   0.000361
   13  C  1 XY   -0.005325  -0.001477  -0.011441   0.004722  -0.000187
   14  C  1 XZ   -0.001605   0.000484   0.000365   0.006425   0.001351
   15  C  1 YZ    0.000610   0.000045   0.002303   0.001974   0.000353
   16  C  2  S    0.057468   0.004428   0.066022  -0.022211  -0.006587
   17  C  2  S   -0.118841  -0.009505  -0.138150   0.045328   0.010472
   18  C  2  X   -0.058826   0.197952   0.112723  -0.036684  -0.127353
   19  C  2  Y    0.190483   0.116929   0.050451  -0.031486   0.243164
   20  C  2  Z    0.012612  -0.019064   0.000602   0.052608   0.025517
   21  C  2  S   -0.094353  -0.016234  -0.129794   0.056469   0.012885
   22  C  2  X   -0.004963   0.064307   0.051400  -0.008651  -0.043234
   23  C  2  Y    0.061486   0.042719   0.037997  -0.012830   0.087394
   24  C  2  Z    0.002291  -0.005695   0.001216   0.024324   0.009162
   25  C  2 XX   -0.007166  -0.001198  -0.002720   0.002304  -0.003551
   26  C  2 YY    0.006697  -0.003828   0.007117  -0.003130   0.001492
   27  C  2 ZZ    0.004605  -0.000106   0.004600  -0.002061  -0.000649
   28  C  2 XY    0.000670   0.000391  -0.013678   0.005437   0.001718
   29  C  2 XZ    0.001865   0.000364   0.001255   0.001719   0.000630
   30  C  2 YZ   -0.000187  -0.000216   0.002736   0.001916  -0.000021
   31  C  3  S    0.057596   0.004508  -0.066051   0.022169  -0.006610
   32  C  3  S   -0.119091  -0.009682   0.138227  -0.045186   0.010553
   33  C  3  X    0.194409   0.003799   0.011275   0.007575   0.275090
   34  C  3  Y    0.042829   0.230419  -0.121824   0.050594   0.010738
   35  C  3  Z   -0.015273   0.013463   0.002919   0.052004  -0.026975
   36  C  3  S   -0.094602  -0.016341   0.129829  -0.056405   0.012763
   37  C  3  X    0.055861   0.005338  -0.007758   0.006514   0.097141
   38  C  3  Y    0.026050   0.077250  -0.063133   0.014934   0.005718
   39  C  3  Z   -0.003301   0.003715   0.002496   0.024127  -0.009561
   40  C  3 XX    0.002848  -0.003458  -0.014882   0.005831  -0.000960
   41  C  3 YY   -0.003346  -0.001574   0.010576  -0.004960  -0.001177
   42  C  3 ZZ    0.004646  -0.000096  -0.004714   0.001968  -0.000632
   43  C  3 XY    0.007214  -0.001096   0.002144  -0.000114   0.003482
   44  C  3 XZ    0.001031   0.000416   0.001775   0.000803   0.000330
   45  C  3 YZ   -0.001347  -0.000106   0.001972   0.002648  -0.000502
   46  C  4  S   -0.103482   0.005175   0.061270  -0.022063   0.002488
   47  C  4  S    0.210696  -0.011221  -0.128687   0.045613  -0.005482
   48  C  4  X    0.060211  -0.178741  -0.135878   0.042177  -0.172282
   49  C  4  Y   -0.036673   0.110087   0.008566  -0.017529  -0.222144
   50  C  4  Z   -0.006914   0.020577   0.039760   0.083464  -0.008920
   51  C  4  S    0.170305  -0.025112  -0.124430   0.056214  -0.025368
   52  C  4  X    0.039780  -0.058762  -0.063861   0.017682  -0.046478
   53  C  4  Y   -0.013385   0.043522   0.003557  -0.002701  -0.075642
   54  C  4  Z   -0.004130   0.006973   0.017965   0.039038  -0.005229
   55  C  4 XX    0.000394  -0.000617  -0.003402   0.001155   0.001430
   56  C  4 YY   -0.003734  -0.003846   0.005431  -0.003251  -0.003746
   57  C  4 ZZ   -0.008669  -0.000353   0.004923  -0.000769   0.000416
   58  C  4 XY   -0.006380   0.000229   0.013898  -0.004680   0.004659
   59  C  4 XZ   -0.001147   0.000151   0.001473  -0.001334   0.000267
   60  C  4 YZ    0.000964  -0.000333   0.001380   0.006686  -0.001149
   61  C  5  S    0.038361   0.002363  -0.044540   0.015753  -0.000149
   62  C  5  S   -0.078553  -0.004522   0.090694  -0.031875  -0.001216
   63  C  5  X    0.020298  -0.135429   0.079994  -0.032082  -0.062325
   64  C  5  Y   -0.133998  -0.065983   0.076707  -0.036800   0.238806
   65  C  5  Z   -0.005879   0.005658   0.105385   0.288179   0.000272
   66  C  5  S   -0.071370  -0.011026   0.117195  -0.046304  -0.006754
   67  C  5  X    0.001516  -0.057551   0.036316  -0.013534  -0.033765
   68  C  5  Y   -0.046684  -0.025075   0.036352  -0.012542   0.104180
   69  C  5  Z   -0.000924   0.004659   0.044532   0.124629   0.001908
   70  C  5 XX   -0.003469   0.002761   0.000483  -0.001145   0.002920
   71  C  5 YY    0.009506   0.000203  -0.012004   0.003698  -0.004021
   72  C  5 ZZ   -0.003304  -0.007061   0.007737  -0.000921   0.002262
   73  C  5 XY    0.002503   0.003999   0.007653  -0.004032  -0.000876
   74  C  5 XZ   -0.000025   0.000804   0.002444   0.007837  -0.000441
   75  C  5 YZ    0.001321   0.000474   0.001311   0.008781  -0.001165
   76  C  6  S    0.038492   0.002367   0.044503  -0.015910  -0.000097
   77  C  6  S   -0.078803  -0.004551  -0.090594   0.032267  -0.001307
   78  C  6  X   -0.126229   0.009657  -0.024899   0.021165   0.238701
   79  C  6  Y   -0.048611  -0.150516  -0.104882   0.052968   0.065046
   80  C  6  Z    0.009830  -0.003753   0.109943   0.285673  -0.005134
   81  C  6  S   -0.071673  -0.010945  -0.117222   0.046432  -0.007116
   82  C  6  X   -0.041267   0.006604  -0.012668   0.006479   0.106994
   83  C  6  Y   -0.021798  -0.062633  -0.048425   0.021140   0.022668
   84  C  6  Z    0.002397  -0.004018   0.046578   0.123700  -0.003961
   85  C  6 XX    0.004433  -0.002157   0.014626  -0.005380  -0.001648
   86  C  6 YY    0.001537   0.005032  -0.002937   0.003668   0.000628
   87  C  6 ZZ   -0.003227  -0.006977  -0.007932   0.000016   0.002196
   88  C  6 XY    0.007663   0.000736   0.002337  -0.000046  -0.003908
   89  C  6 XZ   -0.001541  -0.000126  -0.000680   0.003898   0.001031
   90  C  6 YZ   -0.000948  -0.001430   0.002556   0.011006   0.001192
   91  H  7  S    0.116361  -0.114422   0.132682  -0.044901  -0.021041
   92  H  7  S    0.047533  -0.074400   0.083825  -0.030200  -0.021449
   93  H  8  S   -0.070080  -0.123684  -0.135221   0.053539  -0.006484
   94  H  8  S   -0.028389  -0.083047  -0.082048   0.037598  -0.006426
   95  H  9  S   -0.070234  -0.123831   0.134691  -0.054536  -0.007694
   96  H  9  S   -0.028460  -0.083120   0.081628  -0.038437  -0.007581
   97  H 10  S    0.116358  -0.114315  -0.132907   0.044583  -0.022331
   98  H 10  S    0.047537  -0.074333  -0.083922   0.030168  -0.022675
   99  H 11  S   -0.043197  -0.056954   0.035171  -0.161278   0.027733
  100  H 11  S   -0.018717  -0.037011   0.013953  -0.118869   0.025356
  101  H 12  S   -0.041113  -0.044966   0.123540   0.111059   0.013461
  102  H 12  S   -0.018937  -0.031335   0.078488   0.087751   0.013101
  103  H 13  S   -0.041281  -0.043722  -0.124081  -0.111477   0.012910
  104  H 13  S   -0.019012  -0.030594  -0.078915  -0.088088   0.012691
  105  H 14  S   -0.043302  -0.058092  -0.035265   0.160141   0.028843
  106  H 14  S   -0.018755  -0.037683  -0.013985   0.117960   0.026258

                     16         17         18         19         20
                   -0.4029    -0.3795    -0.3600    -0.3225    -0.3144
                     A          A          A          A          A   
    1  C  1  S   -0.026469   0.001675  -0.001705   0.004815   0.006498
    2  C  1  S    0.059702  -0.005855   0.004185  -0.019131  -0.019547
    3  C  1  X    0.244520  -0.057514   0.018376  -0.185765  -0.187739
    4  C  1  Y   -0.174049  -0.036730   0.019828  -0.211539   0.087758
    5  C  1  Z   -0.032533   0.007016   0.123554   0.018224   0.021932
    6  C  1  S    0.090804  -0.007751   0.004882   0.050724   0.005124
    7  C  1  X    0.066357   0.007967   0.011907  -0.025603  -0.049175
    8  C  1  Y   -0.057656   0.016337   0.009806  -0.113162   0.030756
    9  C  1  Z   -0.009587   0.000642   0.074914   0.001784   0.003303
   10  C  1 XX   -0.009911  -0.008210   0.002722  -0.005424   0.013601
   11  C  1 YY    0.001604   0.009126  -0.000683   0.005589  -0.006477
   12  C  1 ZZ   -0.000965   0.000416  -0.001765  -0.000446  -0.000674
   13  C  1 XY    0.005759  -0.008331  -0.000392  -0.009140  -0.018776
   14  C  1 XZ    0.001449   0.000920   0.005290   0.000743  -0.002500
   15  C  1 YZ   -0.000324   0.001454   0.004442   0.001776   0.001564
   16  C  2  S   -0.012011  -0.022217   0.000860   0.000862  -0.002636
   17  C  2  S    0.027749   0.051239  -0.001662   0.009686   0.009971
   18  C  2  X    0.117316   0.238595   0.017878   0.078661   0.202329
   19  C  2  Y    0.182432   0.044072  -0.020943   0.189787  -0.121172
   20  C  2  Z   -0.015720  -0.026744   0.042236  -0.013825  -0.024116
   21  C  2  S    0.036531   0.085522   0.001062  -0.113427   0.014992
   22  C  2  X    0.052450   0.065648   0.007434  -0.043944   0.067064
   23  C  2  Y    0.011017   0.026065  -0.006225   0.028686  -0.051167
   24  C  2  Z   -0.009379  -0.007411   0.016561  -0.000030  -0.006201
   25  C  2 XX   -0.015493  -0.000342  -0.000091  -0.012907   0.001584
   26  C  2 YY    0.008492  -0.006020  -0.000145   0.005114  -0.003832
   27  C  2 ZZ   -0.000226  -0.000575   0.000311   0.001766   0.000216
   28  C  2 XY   -0.000034  -0.011633   0.000272  -0.015045  -0.014759
   29  C  2 XZ    0.001611  -0.000301  -0.001294   0.001279  -0.000275
   30  C  2 YZ    0.000473   0.001139   0.004779   0.002318   0.001436
   31  C  3  S    0.011957  -0.022159   0.001463  -0.000881  -0.002676
   32  C  3  S   -0.027664   0.051139  -0.002930  -0.009632   0.010085
   33  C  3  X   -0.097837  -0.079637  -0.029403  -0.127545  -0.203023
   34  C  3  Y   -0.192619   0.229445   0.001192  -0.161603   0.116219
   35  C  3  Z   -0.009799   0.022454  -0.041908  -0.009592   0.038403
   36  C  3  S   -0.036479   0.085071  -0.001946   0.113680   0.015029
   37  C  3  X    0.017299  -0.009898  -0.009867  -0.047122  -0.076465
   38  C  3  Y   -0.051292   0.069795   0.001465   0.024295   0.032704
   39  C  3  Z   -0.007937   0.005962  -0.016430  -0.000433   0.015292
   40  C  3 XX   -0.002649   0.004014  -0.000360  -0.011838   0.008483
   41  C  3 YY    0.009715  -0.010390   0.000176   0.019704  -0.010873
   42  C  3 ZZ    0.000145  -0.000539   0.000464  -0.001859   0.000320
   43  C  3 XY   -0.011850  -0.008805  -0.000241  -0.001269  -0.010231
   44  C  3 XZ    0.000027  -0.000987  -0.004798   0.001418  -0.001258
   45  C  3 YZ    0.001501   0.000101  -0.001194   0.001697   0.000371
   46  C  4  S    0.026527   0.001685  -0.001394  -0.004771   0.006631
   47  C  4  S   -0.059828  -0.005921   0.003237   0.018999  -0.019785
   48  C  4  X    0.270461  -0.003098   0.012936   0.093282   0.169287
   49  C  4  Y   -0.129693  -0.068396   0.020410   0.265470  -0.122713
   50  C  4  Z   -0.027895  -0.005583  -0.124329   0.010322  -0.008284
   51  C  4  S   -0.091097  -0.007430   0.005098  -0.050702   0.004194
   52  C  4  X    0.082397   0.010179   0.003052   0.086109   0.051348
   53  C  4  Y   -0.030357   0.015024   0.012290   0.077966  -0.028957
   54  C  4  Z   -0.007976  -0.001347  -0.075228  -0.000697   0.004013
   55  C  4 XX    0.005486   0.011080   0.000453  -0.009596   0.012381
   56  C  4 YY    0.002827  -0.010227   0.001248   0.009560  -0.005223
   57  C  4 ZZ    0.000940   0.000482  -0.001354   0.000371  -0.000688
   58  C  4 XY   -0.008625   0.004283  -0.002280  -0.000888  -0.019576
   59  C  4 XZ   -0.000785  -0.001030  -0.001249   0.001247  -0.002706
   60  C  4 YZ    0.001157  -0.001312  -0.006855   0.001294   0.001261
   61  C  5  S    0.010303   0.024324  -0.001744  -0.007217  -0.003323
   62  C  5  S   -0.018447  -0.053688   0.005008   0.015921   0.012192
   63  C  5  X    0.070289   0.291584  -0.049084  -0.111691  -0.219667
   64  C  5  Y    0.095318   0.062394   0.017970  -0.235494   0.176328
   65  C  5  Z    0.017648  -0.024463  -0.302302  -0.000725   0.037931
   66  C  5  S   -0.066511  -0.100970   0.002364   0.070388  -0.011010
   67  C  5  X    0.058849   0.127165  -0.022577  -0.078610  -0.103443
   68  C  5  Y    0.022935   0.045331   0.009278  -0.130016   0.098655
   69  C  5  Z    0.008665  -0.006718  -0.137050  -0.002865   0.016577
   70  C  5 XX    0.004849  -0.004299   0.001213  -0.010190   0.004358
   71  C  5 YY   -0.007366  -0.000119   0.001607   0.015013  -0.001651
   72  C  5 ZZ    0.004221   0.011096  -0.003984  -0.009653  -0.005218
   73  C  5 XY   -0.004935   0.006349  -0.000292  -0.007493  -0.012548
   74  C  5 XZ   -0.000559  -0.002276  -0.023598   0.001544   0.002466
   75  C  5 YZ    0.000193  -0.001475   0.000727   0.002365   0.000186
   76  C  6  S   -0.010315   0.024290  -0.002225   0.007196  -0.003411
   77  C  6  S    0.018462  -0.053665   0.005888  -0.015850   0.012467
   78  C  6  X   -0.045954  -0.089839   0.044866   0.151167   0.260191
   79  C  6  Y   -0.107247   0.284853  -0.025375   0.212628  -0.106440
   80  C  6  Z    0.016923   0.017641   0.302692  -0.010898  -0.044782
   81  C  6  S    0.066518  -0.100575   0.004988  -0.070441  -0.010918
   82  C  6  X    0.010131  -0.023489   0.022383   0.074922   0.136419
   83  C  6  Y   -0.062035   0.132828  -0.011804   0.132128  -0.041801
   84  C  6  Z    0.007865   0.003007   0.137287  -0.008770  -0.019909
   85  C  6 XX    0.000700  -0.005873   0.001245  -0.014294   0.009230
   86  C  6 YY    0.001763   0.001639   0.002336   0.009693  -0.006729
   87  C  6 ZZ   -0.004147   0.010908  -0.004807   0.009419  -0.005030
   88  C  6 XY    0.008544   0.005387   0.000183  -0.008674  -0.009376
   89  C  6 XZ    0.000357   0.000371  -0.012450   0.002081   0.000559
   90  C  6 YZ   -0.000986   0.003020   0.019872   0.002642  -0.002659
   91  H  7  S   -0.161303   0.021322   0.008533   0.041067   0.162005
   92  H  7  S   -0.159508   0.027480   0.008670   0.062191   0.185004
   93  H  8  S   -0.111745  -0.127539  -0.001103  -0.137291  -0.085248
   94  H  8  S   -0.109384  -0.133392   0.000140  -0.171595  -0.099174
   95  H  9  S    0.111773  -0.127413   0.000278   0.136706  -0.085842
   96  H  9  S    0.109393  -0.133331   0.001611   0.170937  -0.099899
   97  H 10  S    0.160998   0.021605   0.011742  -0.039902   0.162126
   98  H 10  S    0.159208   0.027813   0.012133  -0.060899   0.185186
   99  H 11  S    0.026268   0.109353   0.146165  -0.098020  -0.067594
  100  H 11  S    0.024841   0.105826   0.137388  -0.098551  -0.070436
  101  H 12  S    0.035088   0.069090  -0.186807  -0.073683  -0.028219
  102  H 12  S    0.030984   0.067345  -0.175287  -0.070853  -0.027742
  103  H 13  S   -0.032312   0.068611  -0.186947   0.073568  -0.024906
  104  H 13  S   -0.028812   0.066894  -0.175458   0.070764  -0.024135
  105  H 14  S   -0.028438   0.109834   0.146004   0.097408  -0.071760
  106  H 14  S   -0.026499   0.106363   0.137136   0.097945  -0.075451

                     21         22         23         24         25
                   -0.3011    -0.1956    -0.0132     0.0947     0.1133
                     A          A          A          A          A   
    1  C  1  S   -0.002277  -0.001480   0.000270  -0.030272  -0.011693
    2  C  1  S    0.003486   0.003631  -0.002354   0.078972   0.016607
    3  C  1  X    0.027594  -0.034306   0.041761  -0.075146  -0.010823
    4  C  1  Y   -0.013399   0.004720  -0.001937   0.052829   0.001057
    5  C  1  Z    0.200507  -0.318371   0.340585  -0.008453   0.244188
    6  C  1  S    0.023674   0.007222   0.004332   0.291186   0.168273
    7  C  1  X    0.026030  -0.024420   0.061990  -0.230298  -0.044298
    8  C  1  Y   -0.007874   0.005035   0.011978   0.077453   0.062039
    9  C  1  Z    0.128296  -0.249876   0.431999  -0.007922   0.392556
   10  C  1 XX   -0.000344   0.000971   0.000401  -0.005239  -0.002388
   11  C  1 YY    0.000334  -0.000411  -0.001204   0.008924  -0.002446
   12  C  1 ZZ   -0.000619  -0.000801   0.000795  -0.003743   0.001170
   13  C  1 XY   -0.001442   0.001716   0.001677   0.010153   0.007256
   14  C  1 XZ   -0.000363   0.003796  -0.001389   0.000070   0.002252
   15  C  1 YZ   -0.014498   0.012801   0.011313  -0.004201   0.022302
   16  C  2  S    0.000580   0.000588   0.001324  -0.030754  -0.013786
   17  C  2  S   -0.000401  -0.001373  -0.004465   0.064506   0.020696
   18  C  2  X    0.040223  -0.031582  -0.031429  -0.064563  -0.092228
   19  C  2  Y    0.003338   0.008085   0.003324  -0.036327  -0.030600
   20  C  2  Z    0.320693  -0.241195  -0.238105   0.049232  -0.353548
   21  C  2  S   -0.013240  -0.003710  -0.000554   0.352175   0.228768
   22  C  2  X    0.018268  -0.025339  -0.044032  -0.137123  -0.187330
   23  C  2  Y   -0.005336   0.006186   0.022926  -0.102345  -0.063070
   24  C  2  Z    0.203924  -0.193704  -0.295393   0.087927  -0.581956
   25  C  2 XX    0.000694   0.001299  -0.001063  -0.006356  -0.002012
   26  C  2 YY    0.000974   0.001077  -0.001826   0.003567   0.004007
   27  C  2 ZZ   -0.001782  -0.002447   0.002827  -0.000091  -0.004254
   28  C  2 XY   -0.000512  -0.002448   0.003902  -0.010836  -0.005507
   29  C  2 XZ    0.009471   0.008664  -0.007830  -0.001791   0.017512
   30  C  2 YZ    0.003026  -0.017001   0.025676   0.001553   0.005195
   31  C  3  S   -0.000094   0.000623  -0.001138  -0.030878  -0.012780
   32  C  3  S   -0.000780  -0.001532   0.003688   0.064802   0.018505
   33  C  3  X    0.029093   0.024299  -0.019073  -0.000382   0.024648
   34  C  3  Y   -0.035352  -0.018357   0.019773  -0.074918  -0.088862
   35  C  3  Z    0.320036   0.241196  -0.238394  -0.049128   0.355523
   36  C  3  S    0.010804  -0.002149  -0.000232   0.353443   0.224424
   37  C  3  X    0.018999   0.017915  -0.043764  -0.021853   0.046005
   38  C  3  Y   -0.010745  -0.013600   0.020059  -0.171944  -0.175895
   39  C  3  Z    0.203631   0.193952  -0.295423  -0.085463   0.586537
   40  C  3 XX   -0.001868   0.003110   0.004689   0.009174   0.007154
   41  C  3 YY    0.000557  -0.000408  -0.001213  -0.011967  -0.005333
   42  C  3 ZZ    0.001595  -0.002750  -0.003454  -0.000082  -0.003827
   43  C  3 XY    0.000705  -0.000877  -0.000925  -0.000611  -0.000209
   44  C  3 XZ   -0.001909   0.019058   0.026180  -0.002137   0.003876
   45  C  3 YZ    0.009757   0.000837   0.005864   0.001239  -0.017678
   46  C  4  S    0.001946  -0.001559  -0.000291  -0.030212  -0.012013
   47  C  4  S   -0.002625   0.004061   0.002006   0.078923   0.018227
   48  C  4  X    0.017925   0.021260   0.022890   0.083040   0.006236
   49  C  4  Y   -0.005547  -0.018105  -0.025429  -0.038841  -0.017500
   50  C  4  Z    0.201923   0.318883   0.341438   0.010629  -0.244711
   51  C  4  S   -0.023286   0.006620  -0.002478   0.290275   0.163774
   52  C  4  X    0.017163   0.017284   0.020911   0.181724   0.079602
   53  C  4  Y   -0.013318  -0.012841  -0.046871  -0.160906  -0.027145
   54  C  4  Z    0.128990   0.250011   0.433503   0.014368  -0.395387
   55  C  4 XX   -0.002014  -0.001522   0.002123  -0.002024  -0.008206
   56  C  4 YY    0.001217   0.001598  -0.001151   0.005816   0.002747
   57  C  4 ZZ    0.001096  -0.000264  -0.001034  -0.003837   0.001818
   58  C  4 XY    0.001042  -0.000074   0.000222   0.012304   0.003399
   59  C  4 XZ   -0.012308  -0.009236   0.010488   0.003305  -0.018334
   60  C  4 YZ   -0.007559  -0.009687   0.004372   0.001733  -0.012919
   61  C  5  S    0.000852  -0.002450   0.003499  -0.068553   0.005558
   62  C  5  S   -0.003990   0.006399  -0.006016   0.091027  -0.003202
   63  C  5  X    0.006927  -0.016183   0.009144   0.117355  -0.010935
   64  C  5  Y   -0.006049   0.008030  -0.005966   0.068091  -0.019303
   65  C  5  Z   -0.083193  -0.095291  -0.006920   0.002974  -0.019086
   66  C  5  S    0.009112   0.012727  -0.032818   1.046389  -0.140574
   67  C  5  X   -0.007555  -0.004709   0.013340   0.370520  -0.090332
   68  C  5  Y   -0.015648   0.009935  -0.039324   0.132045  -0.033945
   69  C  5  Z   -0.027983  -0.059528   0.022873   0.029460  -0.137130
   70  C  5 XX    0.000179   0.000385   0.000905  -0.007827  -0.002399
   71  C  5 YY    0.001111   0.002794   0.002563   0.004684  -0.002870
   72  C  5 ZZ   -0.001607  -0.003416  -0.002849  -0.012890   0.006293
   73  C  5 XY    0.000155  -0.000663  -0.000913  -0.010222  -0.001518
   74  C  5 XZ   -0.005552  -0.011953  -0.006703   0.000253   0.004724
   75  C  5 YZ   -0.011285  -0.012644  -0.022297  -0.000788   0.017073
   76  C  6  S   -0.000700  -0.001971  -0.002802  -0.068584   0.005867
   77  C  6  S    0.003440   0.005631   0.004553   0.091085  -0.003065
   78  C  6  X   -0.006516   0.016383   0.008634   0.000823  -0.007277
   79  C  6  Y    0.000149  -0.006604  -0.003834   0.135873  -0.019140
   80  C  6  Z   -0.081423   0.095269  -0.006867  -0.004989   0.022013
   81  C  6  S   -0.008519   0.008230   0.026173   1.046802  -0.150532
   82  C  6  X    0.002072   0.011495   0.041367  -0.069757   0.026917
   83  C  6  Y    0.016300   0.003399   0.008138   0.387891  -0.090966
   84  C  6  Z   -0.027830   0.059258   0.021835  -0.035098   0.145563
   85  C  6 XX   -0.001531   0.003031  -0.003680   0.009256  -0.002329
   86  C  6 YY   -0.000675   0.001286  -0.001259  -0.012403  -0.004106
   87  C  6 ZZ    0.002670  -0.004491   0.004413  -0.012888   0.007565
   88  C  6 XY   -0.000456   0.001180  -0.000948   0.000993  -0.001421
   89  C  6 XZ   -0.006986   0.004883  -0.015856   0.000293  -0.012127
   90  C  6 YZ   -0.010192   0.016458  -0.016665  -0.000236  -0.012315
   91  H  7  S   -0.003439  -0.001489   0.001134  -0.034645  -0.017366
   92  H  7  S   -0.002715  -0.001308   0.001348  -0.552358  -0.239566
   93  H  8  S   -0.006797  -0.001084   0.004187  -0.041420  -0.025325
   94  H  8  S   -0.009498  -0.000885   0.010783  -0.502194  -0.333083
   95  H  9  S    0.011238  -0.000267  -0.003406  -0.041538  -0.024659
   96  H  9  S    0.014660   0.000448  -0.008274  -0.502905  -0.327912
   97  H 10  S   -0.004612  -0.001908  -0.001052  -0.034465  -0.019063
   98  H 10  S   -0.006637  -0.002403  -0.000920  -0.551368  -0.251301
   99  H 11  S    0.054387   0.076572   0.059457  -0.030593  -0.052761
  100  H 11  S    0.073341   0.090627   0.168997  -0.732385  -0.113486
  101  H 12  S   -0.057864  -0.091147  -0.063008  -0.034297   0.066302
  102  H 12  S   -0.066401  -0.123499  -0.156163  -0.730922   0.332453
  103  H 13  S    0.059708  -0.091494   0.063706  -0.033216   0.067622
  104  H 13  S    0.067957  -0.123501   0.160822  -0.722618   0.346138
  105  H 14  S   -0.050659   0.076195  -0.058399  -0.031802  -0.052607
  106  H 14  S   -0.069567   0.090688  -0.163949  -0.742093  -0.114521

                     26         27         28         29         30
                    0.1314     0.1365     0.1526     0.1741     0.1745
                     A          A          A          A          A   
    1  C  1  S    0.016540   0.005634   0.039618  -0.096839  -0.011199
    2  C  1  S   -0.002574  -0.001065  -0.066524   0.131783  -0.017146
    3  C  1  X    0.103944   0.043944   0.202999  -0.024675   0.001446
    4  C  1  Y   -0.020283  -0.019045  -0.111910   0.124547   0.060193
    5  C  1  Z    0.077385   0.059643  -0.035765  -0.005164   0.017456
    6  C  1  S   -0.318388  -0.175193  -0.739217   1.656896   0.331401
    7  C  1  X    0.128258   0.102701   0.664767  -0.220043   0.235575
    8  C  1  Y   -0.238644  -0.026800  -0.279803   0.329254   0.347322
    9  C  1  Z    0.138394   0.225272  -0.131800   0.002811   0.010680
   10  C  1 XX    0.003396  -0.001296   0.004464  -0.007344  -0.016730
   11  C  1 YY    0.008172  -0.001690  -0.005043  -0.004955   0.007450
   12  C  1 ZZ   -0.001788   0.003413   0.004020  -0.002725   0.002320
   13  C  1 XY   -0.009490  -0.001261  -0.007547  -0.009592  -0.004271
   14  C  1 XZ   -0.001583  -0.015417   0.002595   0.000673   0.001417
   15  C  1 YZ    0.008468   0.001945   0.000712   0.000168   0.000179
   16  C  2  S    0.036842   0.002038   0.014073   0.041235  -0.054243
   17  C  2  S   -0.036588  -0.001013  -0.007499  -0.062802   0.073274
   18  C  2  X    0.141997   0.012542   0.124831   0.087700  -0.035696
   19  C  2  Y    0.118642  -0.000487   0.036621   0.002913  -0.058051
   20  C  2  Z   -0.134069  -0.007906  -0.007208   0.005254   0.002309
   21  C  2  S   -0.765841  -0.031564  -0.509923  -0.740412   0.939825
   22  C  2  X    0.374829  -0.003575   0.067614   0.388821  -0.165515
   23  C  2  Y    0.184280   0.048610   0.265140  -0.123434  -0.273662
   24  C  2  Z   -0.255641  -0.060786   0.019077  -0.019445  -0.004000
   25  C  2 XX    0.012380  -0.002213  -0.007190  -0.007743  -0.005515
   26  C  2 YY   -0.005169   0.001625   0.003865   0.007031  -0.003329
   27  C  2 ZZ    0.001033   0.001541   0.002237   0.003578  -0.001872
   28  C  2 XY    0.011355   0.002174   0.009652   0.004747   0.005298
   29  C  2 XZ    0.004743  -0.006029   0.002161   0.001070   0.000431
   30  C  2 YZ    0.000532   0.002513  -0.001830  -0.000475   0.000739
   31  C  3  S    0.036837  -0.005950  -0.014052   0.043230   0.052593
   32  C  3  S   -0.037050   0.005028   0.007401  -0.065529  -0.070995
   33  C  3  X    0.035443   0.004260   0.029530  -0.039831   0.034212
   34  C  3  Y    0.183058  -0.030943  -0.126152   0.079433   0.056582
   35  C  3  Z    0.127592  -0.017384  -0.007835  -0.006570  -0.001321
   36  C  3  S   -0.761491   0.116591   0.508840  -0.773944  -0.909660
   37  C  3  X   -0.024825  -0.039206  -0.197258  -0.293880   0.166994
   38  C  3  Y    0.421170  -0.068952  -0.187809   0.287552   0.268385
   39  C  3  Z    0.239593  -0.079603   0.018778   0.014596  -0.017092
   40  C  3 XX   -0.008997   0.001867   0.005938   0.000173   0.007765
   41  C  3 YY    0.016250  -0.001925  -0.002689  -0.000582   0.001061
   42  C  3 ZZ    0.000954  -0.001589  -0.002200   0.003695   0.001717
   43  C  3 XY   -0.003258  -0.002581  -0.010493   0.009640  -0.004115
   44  C  3 XZ    0.002545   0.005027  -0.002562   0.000676   0.000342
   45  C  3 YZ   -0.005081  -0.003663   0.001334  -0.000565   0.000877
   46  C  4  S    0.015916  -0.006921  -0.039414  -0.096539   0.014880
   47  C  4  S   -0.001841   0.002146   0.066066   0.132507   0.012156
   48  C  4  X   -0.065472   0.044318   0.197541   0.119101  -0.055995
   49  C  4  Y    0.074842  -0.034038  -0.122321   0.038895  -0.032003
   50  C  4  Z   -0.073183   0.065681  -0.030787   0.003867   0.018162
   51  C  4  S   -0.304906   0.195751   0.737061   1.647083  -0.394617
   52  C  4  X   -0.262269   0.100956   0.570811   0.390255  -0.199729
   53  C  4  Y   -0.018859  -0.066112  -0.443549  -0.043627  -0.375174
   54  C  4  Z   -0.116676   0.236613  -0.118411  -0.002998   0.023227
   55  C  4 XX    0.013969  -0.000484  -0.002887   0.001405  -0.004764
   56  C  4 YY   -0.002322   0.002246   0.003578  -0.013394   0.014566
   57  C  4 ZZ   -0.001892  -0.002820  -0.004115  -0.002810  -0.002258
   58  C  4 XY   -0.002505   0.001241   0.008568  -0.004138  -0.009688
   59  C  4 XZ   -0.007317   0.009842  -0.000831   0.000329  -0.000108
   60  C  4 YZ   -0.003912  -0.012338   0.002547  -0.000385   0.000973
   61  C  5  S   -0.037603   0.004950  -0.032598   0.048118  -0.121140
   62  C  5  S    0.024469  -0.005547  -0.005754  -0.063257   0.107933
   63  C  5  X    0.122396   0.028142   0.127763  -0.005950  -0.011151
   64  C  5  Y    0.082660   0.005806   0.015982   0.117616   0.089106
   65  C  5  Z   -0.003700  -0.283101   0.054838  -0.009077  -0.013960
   66  C  5  S    0.844863  -0.065390   0.897808  -0.762912   2.261232
   67  C  5  X    0.422786   0.085630   0.038888  -0.190075  -0.226544
   68  C  5  Y    0.117644   0.077214   0.124461   0.462030   0.341023
   69  C  5  Z   -0.034402  -0.769919   0.150385  -0.006686  -0.041260
   70  C  5 XX   -0.000470   0.002610   0.000824  -0.015986  -0.015179
   71  C  5 YY    0.002179  -0.001280  -0.004749   0.024989  -0.007292
   72  C  5 ZZ   -0.010820  -0.000247  -0.006955  -0.002841  -0.002867
   73  C  5 XY    0.004190  -0.002458  -0.009071   0.000250   0.012094
   74  C  5 XZ    0.003069   0.018155  -0.004081   0.001097   0.000907
   75  C  5 YZ    0.005610  -0.002005   0.001263   0.000663  -0.001023
   76  C  6  S   -0.037857  -0.002316   0.032554   0.052736   0.119191
   77  C  6  S    0.024949   0.004326   0.005854  -0.067133  -0.105491
   78  C  6  X    0.012786   0.001806   0.050147   0.101336  -0.087157
   79  C  6  Y    0.143028  -0.048583  -0.117668   0.051585  -0.036767
   80  C  6  Z   -0.026647  -0.281269   0.054892   0.002688  -0.011266
   81  C  6  S    0.845088  -0.000473  -0.897271  -0.850758  -2.229635
   82  C  6  X   -0.105683  -0.030839  -0.086922   0.476179  -0.427858
   83  C  6  Y    0.411360  -0.172654  -0.091421   0.064946   0.024109
   84  C  6  Z   -0.045913  -0.764324   0.148251  -0.011319  -0.033087
   85  C  6 XX   -0.001982  -0.001768  -0.003272   0.015454   0.017594
   86  C  6 YY    0.003130   0.000655   0.007193  -0.005650   0.004472
   87  C  6 ZZ   -0.010304   0.000628   0.006960  -0.002651   0.003003
   88  C  6 XY    0.003585   0.002791   0.007425   0.020039  -0.010877
   89  C  6 XZ   -0.004593  -0.010468   0.003312  -0.001076  -0.001328
   90  C  6 YZ   -0.004517   0.015129  -0.002856  -0.001412   0.000397
   91  H  7  S    0.033696   0.011163   0.037989  -0.028337  -0.046656
   92  H  7  S    0.454358   0.192489   1.253367  -1.097096  -0.193156
   93  H  8  S    0.049213   0.003986   0.019713   0.023801  -0.008676
   94  H  8  S    0.972289   0.054950   0.534774   0.660506  -0.677748
   95  H  9  S    0.048893  -0.008695  -0.019667   0.024138   0.007744
   96  H  9  S    0.965771  -0.159527  -0.532861   0.684517   0.651016
   97  H 10  S    0.031974  -0.013697  -0.037891  -0.026493   0.047777
   98  H 10  S    0.432645  -0.231780  -1.251454  -1.093358   0.234216
   99  H 11  S   -0.039690  -0.063107  -0.002276  -0.022562  -0.004692
  100  H 11  S   -0.676377  -0.946222  -0.275613   0.120021  -0.843164
  101  H 12  S    0.005441   0.060564  -0.025232  -0.015725  -0.004026
  102  H 12  S   -0.475202   0.923766  -0.609663   0.218634  -0.726175
  103  H 13  S   -0.000126  -0.060612   0.024368  -0.016260   0.004786
  104  H 13  S   -0.553693  -0.883261   0.599879   0.237804   0.718015
  105  H 14  S   -0.033186   0.066125   0.003206  -0.021865   0.005452
  106  H 14  S   -0.586641   0.996461   0.285512   0.160206   0.836762

                     31         32         33         34         35
                    0.2041     0.2343     0.2426     0.2591     0.2845
                     A          A          A          A          A   
    1  C  1  S   -0.053608   0.013460  -0.008270  -0.035969  -0.053629
    2  C  1  S    0.102139  -0.022552  -0.027983   0.046564   0.072078
    3  C  1  X   -0.077150  -0.035142  -0.037350   0.300025   0.098137
    4  C  1  Y    0.026127  -0.009952   0.018109   0.066399   0.078102
    5  C  1  Z    0.014432  -0.021290  -0.000121  -0.027179  -0.025435
    6  C  1  S    0.300341  -0.271862   0.629870   0.619691   1.305442
    7  C  1  X   -0.777424  -0.227144  -0.218424   1.443038   0.279346
    8  C  1  Y    0.296900  -0.064614  -0.283287   0.277835   0.432105
    9  C  1  Z    0.088263  -0.362390  -0.024098  -0.220174  -0.052311
   10  C  1 XX   -0.002141  -0.000787   0.018247  -0.007920  -0.002502
   11  C  1 YY   -0.018474   0.001145  -0.026170   0.006253  -0.003073
   12  C  1 ZZ    0.005315  -0.001593   0.002539  -0.000689   0.001843
   13  C  1 XY   -0.002388   0.000470   0.001890  -0.000578  -0.038169
   14  C  1 XZ    0.000258   0.013191  -0.002144   0.003007   0.001993
   15  C  1 YZ    0.000152  -0.002684   0.001431  -0.000129   0.005289
   16  C  2  S    0.079470  -0.001676   0.005067  -0.011007  -0.052298
   17  C  2  S   -0.173696   0.004774  -0.010604  -0.002489   0.054496
   18  C  2  X    0.065855   0.033919  -0.096871  -0.138301   0.218660
   19  C  2  Y    0.080362   0.016637  -0.145851  -0.025407  -0.123568
   20  C  2  Z   -0.002442   0.063439   0.023927   0.017308  -0.030665
   21  C  2  S   -0.638482  -0.048592  -0.152790   0.552270   1.371260
   22  C  2  X    0.856628   0.107101  -0.463067  -0.610337   1.117394
   23  C  2  Y    0.645982   0.074191  -0.681904  -0.190346  -0.736759
   24  C  2  Z   -0.079779   0.194613   0.046429   0.090239  -0.145564
   25  C  2 XX    0.006439   0.001291   0.005672  -0.003291  -0.015645
   26  C  2 YY    0.011111  -0.003255  -0.005360   0.002615   0.009709
   27  C  2 ZZ   -0.003297   0.000596   0.000640  -0.001629   0.000318
   28  C  2 XY   -0.012219  -0.003097   0.002494   0.020752   0.028333
   29  C  2 XZ   -0.002150  -0.000691  -0.000632   0.001311   0.003562
   30  C  2 YZ    0.001297   0.000905  -0.002563  -0.001872  -0.004469
   31  C  3  S   -0.079455  -0.001431  -0.005186  -0.011214   0.052148
   32  C  3  S    0.173581   0.003344   0.010604  -0.002364  -0.054357
   33  C  3  X   -0.037257  -0.006300   0.079078   0.044737   0.215346
[...]
   35  C  3  Z    0.003936
   36  C  3  S   -2.953022
   37  C  3  X    0.008420
   38  C  3  Y   -1.218546
   39  C  3  Z   -0.080091
   40  C  3 XX    1.069042
   41  C  3 YY    0.731578
   42  C  3 ZZ    0.680380
   43  C  3 XY   -0.001892
   44  C  3 XZ   -0.045171
   45  C  3 YZ    0.004085
   46  C  4  S   -0.189261
   47  C  4  S    0.904666
   48  C  4  X    0.157938
   49  C  4  Y   -0.001770
   50  C  4  Z   -0.014099
   51  C  4  S    2.829491
   52  C  4  X   -0.873805
   53  C  4  Y    0.635965
   54  C  4  Z    0.105182
   55  C  4 XX   -0.797764
   56  C  4 YY   -0.907207
   57  C  4 ZZ   -0.644354
   58  C  4 XY   -0.169623
   59  C  4 XZ   -0.005002
   60  C  4 YZ   -0.013874
   61  C  5  S    0.262910
   62  C  5  S   -1.146255
   63  C  5  X   -0.057001
   64  C  5  Y   -0.039406
   65  C  5  Z   -0.012733
   66  C  5  S   -3.388655
   67  C  5  X    0.698231
   68  C  5  Y    0.245554
   69  C  5  Z    0.039863
   70  C  5 XX    0.979241
   71  C  5 YY    1.116584
   72  C  5 ZZ    0.867800
   73  C  5 XY   -0.114586
   74  C  5 XZ   -0.009002
   75  C  5 YZ    0.010960
   76  C  6  S   -0.263096
   77  C  6  S    1.147224
   78  C  6  X    0.005922
   79  C  6  Y    0.068718
   80  C  6  Z   -0.014880
   81  C  6  S    3.388693
   82  C  6  X    0.133380
   83  C  6  Y   -0.725996
   84  C  6  Z    0.054125
   85  C  6 XX   -1.168222
   86  C  6 YY   -0.928471
   87  C  6 ZZ   -0.869220
   88  C  6 XY   -0.009549
   89  C  6 XZ    0.021286
   90  C  6 YZ   -0.000843
   91  H  7  S   -0.060457
   92  H  7  S   -0.047827
   93  H  8  S    0.076728
   94  H  8  S    0.090379
   95  H  9  S   -0.076946
   96  H  9  S   -0.091155
   97  H 10  S    0.060713
   98  H 10  S    0.048369
   99  H 11  S    0.056792
  100  H 11  S    0.255147
  101  H 12  S    0.066192
  102  H 12  S    0.213141
  103  H 13  S   -0.067166
  104  H 13  S   -0.213856
  105  H 14  S   -0.055449
  106  H 14  S   -0.255369
 ...... END OF RHF CALCULATION ......
 STEP CPU TIME =    27.84 TOTAL CPU TIME =         27.9 (      0.5 MIN)
 TOTAL WALL CLOCK TIME=         28.0 SECONDS, CPU UTILIZATION IS    99.50%

     ---------------------------------------------------------------------
     PROPERTIES FOR THE B3LYP    DFT FUNCTIONAL (RHF  TYPE) DENSITY MATRIX
     ---------------------------------------------------------------------

          -----------------
          ENERGY COMPONENTS
          -----------------

         WAVEFUNCTION NORMALIZATION =       1.0000000000

                ONE ELECTRON ENERGY =    -745.8568841116
                TWO ELECTRON ENERGY =     294.0158462967
           NUCLEAR REPULSION ENERGY =     218.5872488473
                                      ------------------
                       TOTAL ENERGY =    -233.2537889676

 ELECTRON-ELECTRON POTENTIAL ENERGY =     294.0158462967
  NUCLEUS-ELECTRON POTENTIAL ENERGY =    -977.0765367431
   NUCLEUS-NUCLEUS POTENTIAL ENERGY =     218.5872488473
                                      ------------------
             TOTAL POTENTIAL ENERGY =    -464.4734415991
               TOTAL KINETIC ENERGY =     231.2196526315
                 VIRIAL RATIO (V/T) =       2.0087974197

          ---------------------------------------
          MULLIKEN AND LOWDIN POPULATION ANALYSES
          ---------------------------------------

     ATOMIC MULLIKEN POPULATION IN EACH MOLECULAR ORBITAL

                      1          2          3          4          5

                  2.000000   2.000000   2.000000   2.000000   2.000000

    1             0.000998   0.001590   0.033602   1.949549   0.007448
    2             0.000014  -0.000078   0.000070   0.014450   0.974820
    3             0.000001  -0.000064   0.014330   0.000184   1.009690
    4             0.001245   0.001340   1.949614   0.033547   0.007701
    5             1.089504   0.906804   0.002078  -0.000050  -0.000006
    6             0.906976   1.089329   0.000025   0.002005  -0.000005
    7             0.000008   0.000015  -0.000007   0.000239   0.000002
    8             0.000000  -0.000001   0.000001   0.000038   0.000173
    9             0.000000  -0.000001   0.000041  -0.000002   0.000175
   10             0.000010   0.000013   0.000218   0.000015   0.000003
   11             0.000332   0.000241   0.000011   0.000000  -0.000000
   12             0.000344   0.000232   0.000016  -0.000001   0.000000
   13             0.000292   0.000287   0.000001   0.000014   0.000000
   14             0.000278   0.000293   0.000000   0.000011  -0.000000

                      6          7          8          9         10

                  2.000000   2.000000   2.000000   2.000000   2.000000

    1             0.007015   0.309809   0.089629   0.509189   0.196156
    2             1.010544   0.332992   0.349005   0.209102   0.233338
    3             0.975675   0.332952   0.352237   0.205991   0.232869
    4             0.006756   0.310250   0.090708   0.508185   0.196200
    5            -0.000016   0.302947   0.433646   0.193923   0.375874
    6            -0.000017   0.303293   0.436849   0.190526   0.375697
    7             0.000006   0.011957   0.000310   0.051343   0.001309
    8             0.000017   0.012143   0.032756   0.010925   0.045835
    9             0.000015   0.012121   0.033067   0.010599   0.045585
   10             0.000006   0.011988   0.000382   0.051309   0.001328
   11             0.000000   0.014939   0.045755   0.015239   0.074122
   12             0.000000   0.014833   0.044603   0.014641   0.073888
   13             0.000000   0.014861   0.044950   0.014236   0.073744
   14             0.000000   0.014915   0.046101   0.014791   0.074056

                     11         12         13         14         15

                  2.000000   2.000000   2.000000   2.000000   2.000000

    1             0.324098   0.258156   0.212780   0.079414   0.342175
    2             0.330396   0.299689   0.198273   0.045220   0.328377
    3             0.330581   0.300190   0.196788   0.046342   0.329972
    4             0.323934   0.257949   0.212779   0.079917   0.343217
    5             0.164746   0.146170   0.191088   0.513267   0.313869
    6             0.164997   0.146505   0.192897   0.510321   0.315014
    7             0.110056   0.112871   0.133888   0.015015   0.004166
    8             0.040369   0.134276   0.136886   0.021975   0.000481
    9             0.040552   0.134579   0.135736   0.022860   0.000649
   10             0.110046   0.112654   0.134307   0.014836   0.004674
   11             0.015606   0.029370   0.007399   0.216410   0.006732
   12             0.014408   0.019028   0.119298   0.110114   0.001767
   13             0.014530   0.018039   0.120437   0.110976   0.001646
   14             0.015681   0.030524   0.007444   0.213331   0.007262

                     16         17         18         19         20

                  2.000000   2.000000   2.000000   2.000000   2.000000

    1             0.392240   0.019479   0.112929   0.283383   0.165809
    2             0.190810   0.246442   0.013495   0.145082   0.202038
    3             0.189171   0.245914   0.013689   0.145392   0.202347
    4             0.390929   0.019519   0.112723   0.282205   0.167797
    5             0.074187   0.446891   0.451961   0.301176   0.339245
    6             0.072237   0.446644   0.453147   0.301946   0.340450
    7             0.223295   0.004186   0.000576   0.013915   0.195365
    8             0.105406   0.138085   0.000005   0.146904   0.054801
    9             0.105438   0.137853   0.000006   0.145696   0.055595
   10             0.222422   0.004293   0.001091   0.013165   0.195690
   11             0.006389   0.102164   0.157755   0.071233   0.032983
   12             0.010821   0.042996   0.262368   0.039817   0.005916
   13             0.009282   0.042467   0.262912   0.039716   0.004626
   14             0.007372   0.103067   0.157343   0.070369   0.037338

                     21         22

                  2.000000   2.000000

    1             0.262296   0.557480
    2             0.663890   0.326577
    3             0.664058   0.325843
    4             0.262039   0.556861
    5             0.027292   0.033189
    6             0.026010   0.033143
    7             0.000087   0.000016
    8             0.000344   0.000006
    9             0.000934  -0.000000
   10             0.000145   0.000030
   11             0.023346   0.032242
   12             0.023810   0.051161
   13             0.025288   0.051383
   14             0.020462   0.032068

               ----- POPULATIONS IN EACH AO -----
                             MULLIKEN      LOWDIN
              1  C  1  S      1.99187     1.97808
              2  C  1  S      0.70776     0.36397
              3  C  1  X      0.71926     0.63039
              4  C  1  Y      0.76993     0.67807
              5  C  1  Z      0.56623     0.52270
              6  C  1  S      0.52635     0.30433
              7  C  1  X      0.20193     0.38777
              8  C  1  Y      0.20195     0.34064
              9  C  1  Z      0.42091     0.45704
             10  C  1 XX      0.00785     0.16475
             11  C  1 YY      0.00224     0.17687
             12  C  1 ZZ     -0.02403     0.10539
             13  C  1 XY      0.01403     0.03107
             14  C  1 XZ      0.00190     0.00376
             15  C  1 YZ      0.00704     0.01396
             16  C  2  S      1.99184     1.97799
             17  C  2  S      0.70911     0.36067
             18  C  2  X      0.73377     0.64018
             19  C  2  Y      0.77279     0.67808
             20  C  2  Z      0.57837     0.52747
             21  C  2  S      0.49099     0.29868
             22  C  2  X      0.22309     0.37907
             23  C  2  Y      0.17058     0.34177
             24  C  2  Z      0.43423     0.47782
             25  C  2 XX      0.00693     0.16412
             26  C  2 YY      0.00266     0.17654
             27  C  2 ZZ     -0.02390     0.10340
             28  C  2 XY      0.01494     0.03326
             29  C  2 XZ      0.00312     0.00625
             30  C  2 YZ      0.00602     0.01297
             31  C  3  S      1.99185     1.97793
             32  C  3  S      0.70912     0.36024
             33  C  3  X      0.76344     0.66965
             34  C  3  Y      0.74355     0.64840
             35  C  3  Z      0.57803     0.52718
             36  C  3  S      0.49077     0.29858
             37  C  3  X      0.16873     0.32526
             38  C  3  Y      0.22441     0.39621
             39  C  3  Z      0.43450     0.47786
             40  C  3 XX      0.00047     0.17628
             41  C  3 YY      0.01371     0.17375
             42  C  3 ZZ     -0.02396     0.10324
             43  C  3 XY      0.01049     0.02115
             44  C  3 XZ      0.00705     0.01570
             45  C  3 YZ      0.00201     0.00341
             46  C  4  S      1.99187     1.97802
             47  C  4  S      0.70776     0.36383
             48  C  4  X      0.76557     0.66865
             49  C  4  Y      0.72431     0.64080
             50  C  4  Z      0.56557     0.52222
             51  C  4  S      0.52651     0.30435
             52  C  4  X      0.22928     0.37626
             53  C  4  Y      0.17364     0.35214
             54  C  4  Z      0.42187     0.45728
             55  C  4 XX      0.00910     0.17746
             56  C  4 YY      0.00184     0.16640
             57  C  4 ZZ     -0.02414     0.10512
             58  C  4 XY      0.01338     0.02850
             59  C  4 XZ      0.00437     0.00824
             60  C  4 YZ      0.00450     0.00935
             61  C  5  S      1.99212     1.97749
             62  C  5  S      0.68067     0.35564
             63  C  5  X      0.70087     0.62915
             64  C  5  Y      0.70055     0.62899
             65  C  5  Z      0.72036     0.63992
             66  C  5  S      0.58510     0.30757
             67  C  5  X      0.30397     0.40432
             68  C  5  Y      0.26442     0.37701
             69  C  5  Z      0.33241     0.46678
             70  C  5 XX     -0.00161     0.14402
             71  C  5 YY     -0.00181     0.14943
             72  C  5 ZZ      0.00519     0.14787
             73  C  5 XY      0.00800     0.01583
             74  C  5 XZ      0.01171     0.02197
             75  C  5 YZ      0.00584     0.01126
             76  C  6  S      1.99212     1.97749
             77  C  6  S      0.68064     0.35536
             78  C  6  X      0.69173     0.62196
             79  C  6  Y      0.70988     0.63553
             80  C  6  Z      0.72019     0.63986
             81  C  6  S      0.58527     0.30748
             82  C  6  X      0.24257     0.36562
             83  C  6  Y      0.32573     0.41663
             84  C  6  Z      0.33254     0.46649
             85  C  6 XX     -0.00261     0.14948
             86  C  6 YY     -0.00144     0.14355
             87  C  6 ZZ      0.00518     0.14785
             88  C  6 XY      0.00879     0.01579
             89  C  6 XZ      0.00410     0.00749
             90  C  6 YZ      0.01331     0.02544
             91  H  7  S      0.53434     0.48843
             92  H  7  S      0.34428     0.35843
             93  H  8  S      0.53506     0.48814
             94  H  8  S      0.34637     0.35869
             95  H  9  S      0.53505     0.49047
             96  H  9  S      0.34645     0.35897
             97  H 10  S      0.53436     0.48833
             98  H 10  S      0.34426     0.35839
             99  H 11  S      0.53064     0.49510
            100  H 11  S      0.32163     0.35038
            101  H 12  S      0.53057     0.49625
            102  H 12  S      0.31949     0.35113
            103  H 13  S      0.53049     0.49642
            104  H 13  S      0.31920     0.35096
            105  H 14  S      0.53066     0.49547
            106  H 14  S      0.32204     0.35069

          ----- MULLIKEN ATOMIC OVERLAP POPULATIONS -----
          (OFF-DIAGONAL ELEMENTS NEED TO BE MULTIPLIED BY 2)

             1           2           3           4           5

    1    4.9058392
    2    0.6761274   4.8186259
    3   -0.0306495   0.4278461   4.8178562
    4   -0.0333307  -0.0304952   0.6764225   4.9057934
    5   -0.0267078  -0.0338291  -0.0242206   0.3725602   5.0496114
    6    0.3727326  -0.0242228  -0.0336915  -0.0267735   0.3444709
    7    0.3603470  -0.0363895   0.0061385   0.0000933   0.0044168
    8   -0.0516884   0.3624293  -0.0513586   0.0069097  -0.0001563
    9    0.0069233  -0.0514025   0.3624189  -0.0517455   0.0069568
   10    0.0000935   0.0061422  -0.0363979   0.3603451  -0.0545878
   11    0.0022727   0.0012552  -0.0004791  -0.0323681   0.3684921
   12    0.0011996   0.0020026  -0.0030065  -0.0354675   0.3661300
   13   -0.0357965  -0.0032689   0.0020379   0.0012071  -0.0332713
   14   -0.0321382  -0.0002735   0.0012377   0.0022655  -0.0320829

             6           7           8           9          10

    6    5.0493978
    7   -0.0545734   0.6093404
    8    0.0069484  -0.0090799   0.6249387
    9   -0.0001599  -0.0001774  -0.0069986   0.6251250
   10    0.0044199   0.0000089  -0.0001776  -0.0090998   0.6093658
   11   -0.0321667  -0.0001410   0.0000122  -0.0001760  -0.0015578
   12   -0.0331423  -0.0001332   0.0000155  -0.0001942   0.0003434
   13    0.3666062   0.0004178  -0.0001939   0.0000152  -0.0001328
   14    0.3681437  -0.0016506  -0.0001759   0.0000123  -0.0001410

            11          12          13          14

   11    0.5963293
   12   -0.0404523   0.5998477
   13   -0.0128535   0.0056957   0.5996811
   14    0.0041007  -0.0127762  -0.0404565   0.5966401

          TOTAL MULLIKEN AND LOWDIN ATOMIC POPULATIONS
       ATOM         MULL.POP.    CHARGE          LOW.POP.     CHARGE
    1 C             6.115224   -0.115224         6.158788   -0.158788
    2 C             6.114547   -0.114547         6.178279   -0.178279
    3 C             6.114154   -0.114154         6.174840   -0.174840
    4 C             6.115416   -0.115416         6.158600   -0.158600
    5 C             6.307782   -0.307782         6.277252   -0.277252
    6 C             6.307989   -0.307989         6.275992   -0.275992
    7 H             0.878618    0.121382         0.846864    0.153136
    8 H             0.881425    0.118575         0.846821    0.153179
    9 H             0.881498    0.118502         0.849440    0.150560
   10 H             0.878624    0.121376         0.846719    0.153281
   11 H             0.852268    0.147732         0.845481    0.154519
   12 H             0.850062    0.149938         0.847380    0.152620
   13 H             0.849688    0.150312         0.847381    0.152619
   14 H             0.852705    0.147295         0.846163    0.153837

          -------------------------------
          BOND ORDER AND VALENCE ANALYSIS     BOND ORDER THRESHOLD=0.050
          -------------------------------

                   BOND                       BOND                       BOND
  ATOM PAIR DIST  ORDER      ATOM PAIR DIST  ORDER      ATOM PAIR DIST  ORDER
    1   2  1.340  1.885        1   4  2.841  0.112        1   6  1.502  1.017
    1   7  1.084  0.929        2   3  1.439  1.124        2   8  1.086  0.928
    3   4  1.339  1.885        3   9  1.086  0.928        4   5  1.503  1.017
    4  10  1.084  0.929        5   6  1.542  0.990        5  11  1.095  0.936
    5  12  1.095  0.933        6  13  1.095  0.932        6  14  1.095  0.936

                       TOTAL       BONDED        FREE
      ATOM            VALENCE     VALENCE     VALENCE
    1 C                 3.919       3.919       0.000
    2 C                 3.973       3.973       0.000
    3 C                 3.973       3.973       0.000
    4 C                 3.919       3.919       0.000
    5 C                 3.870       3.870       0.000
    6 C                 3.870       3.870       0.000
    7 H                 0.938       0.938       0.000
    8 H                 0.934       0.934      -0.000
    9 H                 0.934       0.934      -0.000
   10 H                 0.938       0.938       0.000
   11 H                 0.926       0.926      -0.000
   12 H                 0.923       0.923       0.000
   13 H                 0.923       0.923       0.000
   14 H                 0.926       0.926      -0.000

          ---------------------
          ELECTROSTATIC MOMENTS
          ---------------------

 POINT   1           X           Y           Z (BOHR)    CHARGE
                 0.000001    0.000001    0.000003        0.00 (A.U.)
         DX          DY          DZ         /D/  (DEBYE)
     0.268375    0.459584   -0.006703    0.532248
 ...... END OF PROPERTY EVALUATION ......
 STEP CPU TIME =     0.02 TOTAL CPU TIME =         27.9 (      0.5 MIN)
 TOTAL WALL CLOCK TIME=         28.0 SECONDS, CPU UTILIZATION IS    99.47%
               1070930  WORDS OF DYNAMIC MEMORY USED
 EXECUTION OF GAMESS TERMINATED NORMALLY Tue Dec 20 21:38:28 2022
 DDI: 263640 bytes (0.3 MB / 0 MWords) used by master data server.

 ----------------------------------------
 CPU timing information for all processes
 ========================================
 0: 27.774 + 0.122 = 27.896
 ----------------------------------------
 ddikick.x: exited gracefully.
----- accounting info -----
Files used on the master node chemcompute-node-0.novalocal were:
-rw-r--r--. 1 chemcomp chemcomp     1209 Dec 20 21:38 /scratch/169792/518202.F05
-rw-rw-r--. 1 chemcomp chemcomp 45875200 Dec 20 21:38 /scratch/169792/518202.F10
Tue Dec 20 21:38:31 UTC 2022
0.097u 0.037s 0:31.39 0.3%	0+0k 8+208io 0pf+0w
Finishing Up...
Looking for IR data...
Looking for Raman data...
vibramans not found
Looking for thermodynamics data...
Looking for UV-Vis data...
chemcompute.org
{'UTCtimestamp': '2022-12-20T21:38:32.971271', 'cluster': 'jetstream2', 'clusterJobNumber': '169792', 'status': 'COMPLETE', 'nodeList': 'chemcompute-node-0'}
169792
