chemcompute.org
{'UTCtimestamp': '2022-12-19T23:37:58.254692', 'cluster': 'jetstream2', 'clusterJobNumber': '169673', 'status': 'RUNNING', 'nodeList': 'chemcompute-node-0'}
----- GAMESS execution script 'rungms' -----
This job is running on host chemcompute-node-0.novalocal
under operating system Linux at Mon Dec 19 23:38:01 UTC 2022
SLURM has assigned the following compute nodes to this run:
Available scratch disk space (Kbyte units) at beginning of the job is
Filesystem     1K-blocks     Used Available Use% Mounted on
/dev/sda4       61775852 10714696  51061156  18% /
GAMESS temporary binary files will be written to /scratch/169673
GAMESS supplementary output files will be written to /data/slurm/51/518082
Copying input file 518082.inp to your run's scratch directory...
The generated host list is
chemcompute-node-0.novalocal

 Distributed Data Interface kickoff program.
 Initiating 1 compute processes on 1 nodes to run the following command:
 /data/gamess-2019R1-avx2-ddi/gamess.00.x 518082 

          ******************************************************
          *         GAMESS VERSION = 30 JUN 2019 (R1)          *
          *             FROM IOWA STATE UNIVERSITY             *
          * M.W.SCHMIDT, K.K.BALDRIDGE, J.A.BOATZ, S.T.ELBERT, *
          *   M.S.GORDON, J.H.JENSEN, S.KOSEKI, N.MATSUNAGA,   *
          *          K.A.NGUYEN, S.J.SU, T.L.WINDUS,           *
          *       TOGETHER WITH M.DUPUIS, J.A.MONTGOMERY       *
          *         J.COMPUT.CHEM.  14, 1347-1363(1993)        *
          **************** 64 BIT INTEL VERSION ****************

  SINCE 1993, STUDENTS AND POSTDOCS WORKING AT IOWA STATE UNIVERSITY
  AND ALSO IN THEIR VARIOUS JOBS AFTER LEAVING ISU HAVE MADE IMPORTANT
  CONTRIBUTIONS TO THE CODE:
     IVANA ADAMOVIC, CHRISTINE AIKENS, YURI ALEXEEV, POOJA ARORA,
     ANDREY ASADCHEV, ROB BELL, PRADIPTA BANDYOPADHYAY, JONATHAN BENTZ,
     COLLEEN BERTONI, BRETT BODE, KURT BRORSEN, CALEB CARLIN, GALINA CHABAN,
     WEI CHEN, CHEOL HO CHOI, PAUL DAY, ALBERT DEFUSCO, NUWAN DESILVA,
     TIM DUDLEY, DMITRI FEDOROV, ALEX FINDLATER, GRAHAM FLETCHER, 
     MARK FREITAG, KURT GLAESEMANN, ANASTASIA GUNINA,
     DAN KEMP, GRANT MERRILL, NORIYUKI MINEZAWA, JONATHAN MULLIN,
     TAKESHI NAGATA, SEAN NEDD, HEATHER NETZLOFF, BOSILJKA NJEGIC, RYAN OLSON,
     MIKE PAK, BUU PHAM,
     SPENCER PRUITT, LUKE ROSKOP, JIM SHOEMAKER, LYUDMILA SLIPCHENKO,
     TONY SMITH, SAROM SOK LEANG, JIE SONG, TETSUYA TAKETSUGU, SIMON WEBB,
     PENG XU, SOOHAENG YOO, FEDERICO ZAHARIEV

  ADDITIONAL CODE HAS BEEN PROVIDED BY COLLABORATORS IN OTHER GROUPS:
     IOWA STATE UNIVERSITY:
          JOE IVANIC, AARON WEST, LAIMUTIS BYTAUTAS, KLAUS RUEDENBERG
     UNIVERSITY OF TOKYO: KIMIHIKO HIRAO, TAKAHITO NAKAJIMA,
          TAKAO TSUNEDA, MUNEAKI KAMIYA, SUSUMU YANAGISAWA,
          KIYOSHI YAGI, MAHITO CHIBA, SEIKEN TOKURA, NAOAKI KAWAKAMI
     UNIVERSITY OF AARHUS: FRANK JENSEN
     UNIVERSITY OF IOWA: VISVALDAS KAIRYS, HUI LI
     NATIONAL INST. OF STANDARDS AND TECHNOLOGY: WALT STEVENS, DAVID GARMER
     UNIVERSITY OF PISA: BENEDETTA MENNUCCI, JACOPO TOMASI
     UNIVERSITY OF MEMPHIS: HENRY KURTZ, PRAKASHAN KORAMBATH
     UNIVERSITY OF ALBERTA: TOBY ZENG, MARIUSZ KLOBUKOWSKI
     UNIVERSITY OF NEW ENGLAND: MARK SPACKMAN
     MIE UNIVERSITY: HIROAKI UMEDA
     NAT. INST. OF ADVANCED INDUSTRIAL SCIENCE AND TECHNOLOGY: KAZUO KITAURA
     MICHIGAN STATE UNIVERSITY:
          KAROL KOWALSKI, MARTA WLOCH, JEFFREY GOUR, JESSE LUTZ,
          WEI LI, JUN SHEN, J. EMILIANO DEUSTUA, PIOTR PIECUCH
     UNIVERSITY OF MINNESOTA:
          YINAN SHU
     UNIVERSITY OF SILESIA: MONIKA MUSIAL, STANISLAW KUCHARSKI
     FACULTES UNIVERSITAIRES NOTRE-DAME DE LA PAIX:
          OLIVIER QUINET, BENOIT CHAMPAGNE
     UNIVERSITY OF CALIFORNIA - SANTA BARBARA: BERNARD KIRTMAN
     INSTITUTE FOR MOLECULAR SCIENCE:
          KAZUYA ISHIMURA, MICHIO KATOUDA, AND SHIGERU NAGASE
     UNIVERSITY OF NOTRE DAME: ANNA POMOGAEVA, DAN CHIPMAN
     KYUSHU UNIVERSITY:
          HARUYUKI NAKANO,
          FENG LONG GU, JACEK KORCHOWIEC, MARCIN MAKOWSKI, AND YURIKO AOKI,
          HIROTOSHI MORI AND EISAKU MIYOSHI
     PENNSYLVANIA STATE UNIVERSITY:
          TZVETELIN IORDANOV, CHET SWALINA, JONATHAN SKONE,
          SHARON HAMMES-SCHIFFER
     WASEDA UNIVERSITY:
          MASATO KOBAYASHI, TOMOKO AKAMA, TSUGUKI TOUMA,
          TAKESHI YOSHIKAWA, YASUHIRO IKABATA, JUNJI SEINO,
          YUYA NAKAJIMA, HIROMI NAKAI
     NANJING UNIVERSITY: SHUHUA LI
     UNIVERSITY OF NEBRASKA:
          PEIFENG SU, DEJUN SI, NANDUN THELLAMUREGE, YALI WANG, HUI LI
     UNIVERSITY OF ZURICH: ROBERTO PEVERATI, KIM BALDRIDGE
     N. COPERNICUS UNIVERSITY AND JACKSON STATE UNIVERSITY:
          MARIA BARYSZ
     UNIVERSITY OF COPENHAGEN: Jimmy Kromann, CASPER STEINMANN
     TOKYO INSTITUTE OF TECHNOLOGY: HIROYA NAKATA
     NAGOYA UNIVERSITY: YOSHIO NISHIMOTO, STEPHAN IRLE
     MOSCOW STATE UNIVERSITY: VLADIMIR MIRONOV
     A.N.NESMEYANOV INSTITUTE OF ORGANOELEMENT COMPOUNDS OF RUSSIAN ACADEMY OF SCIENCES:
          IGOR S. GERASIMOV

 EXECUTION OF GAMESS BEGUN Mon Dec 19 23:38:02 2022

            ECHO OF THE FIRST FEW INPUT CARDS -
 INPUT CARD>!                                                                               
 INPUT CARD>!   GAMESS Calculation input file                                               
 INPUT CARD>!                                                                               
 INPUT CARD>!                                                                               
 INPUT CARD> $CONTRL SCFTYP=RHF MAXIT=200 RUNTYP=OPTIMIZE                                   
 INPUT CARD>         COORD=UNIQUE MULT=1                                                    
 INPUT CARD>         ICHARG=0                                                               
 INPUT CARD>         MOLPLT=.FALSE. PLTORB=.FALSE.  $END                                    
 INPUT CARD> $SYSTEM TIMLIM=2879 MWORDS=250  $END                                           
 INPUT CARD>                                                                                
 INPUT CARD> $STATPT OPTTOL=0.0005 NSTEP=999 $END                                           
 INPUT CARD> $STATPT IHREP=0  $END                                                          
 INPUT CARD>                                                                                
 INPUT CARD> $BASIS  GBASIS=PM6 $END                                                        
 INPUT CARD>                                                                                
 INPUT CARD> $SCF    DIRSCF=.T. $END                                                        
 INPUT CARD> $GUESS  GUESS=HUCKEL  $END                                                     
 INPUT CARD>                                                                                
 INPUT CARD> $DATA                                                                          
 INPUT CARD>                                                                                
 INPUT CARD>  C1                                                                            
 INPUT CARD>C     6.0     1.17416    -0.79285     0.14823                                   
 INPUT CARD>C     6.0     1.28722     0.69652    -0.01063                                   
 INPUT CARD>C     6.0    -0.04939     1.46479    -0.02511                                   
 INPUT CARD>C     6.0    -1.28171     0.61085    -0.11204                                   
 INPUT CARD>C     6.0    -1.23847    -0.72497    -0.08194                                   
 INPUT CARD>C     6.0     0.00457    -1.43591     0.08281                                   
 INPUT CARD>H     1.0     2.09154    -1.35536     0.29760                                   
 INPUT CARD>H     1.0     1.81952     0.89048    -0.94470                                   
 INPUT CARD>H     1.0     1.92176     1.09632     0.78425                                   
 INPUT CARD>H     1.0    -0.04718     2.17076    -0.86445                                   
 INPUT CARD>H     1.0    -0.11958     2.07462     0.87717                                   
 INPUT CARD>H     1.0    -2.24021     1.11651    -0.19197                                   
 INPUT CARD>H     1.0    -2.15226    -1.31206    -0.14321                                   
 INPUT CARD>H     1.0    -0.03973    -2.51919     0.16941                                   
 INPUT CARD> $END                                                                           
 INPUT CARD>                                                                                
 INPUT CARD>                                                                                
 INPUT CARD>! Customizations after this line are persisted when using Do More Calculations  
  250000000 WORDS OF MEMORY AVAILABLE

     BASIS OPTIONS
     -------------
     GBASIS=PM6          IGAUSS=       0      POLAR=NONE    
     NDFUNC=       0     NFFUNC=       0     DIFFSP=       F
     NPFUNC=       0      DIFFS=       F     BASNAM=        


     RUN TITLE
     ---------
                                                                                 

 THE POINT GROUP OF THE MOLECULE IS C1      
 THE ORDER OF THE PRINCIPAL AXIS IS     0

 ATOM      ATOMIC                      COORDINATES (BOHR)
           CHARGE         X                   Y                   Z
 C           6.0     2.2188406657       -1.4982692494        0.2801140832
 C           6.0     2.4324930859        1.3162319450       -0.0200877872
 C           6.0    -0.0933335665        2.7680517296       -0.0474510196
 C           6.0    -2.4220806957        1.1543391196       -0.2117248997
 C           6.0    -2.3403689440       -1.3699946493       -0.1548441474
 C           6.0     0.0086360478       -2.7134764430        0.1564882090
 H           1.0     3.9524374924       -2.5612590147        0.5623824539
 H           1.0     3.4383942292        1.6827631975       -1.7852241406
 H           1.0     3.6315998142        2.0717443949        1.4820176059
 H           1.0    -0.0891572721        4.1021415851       -1.6335736301
 H           1.0    -0.2259734336        3.9204633286        1.6576109446
 H           1.0    -4.2333830550        2.1098979626       -0.3627706979
 H           1.0    -4.0671816543       -2.4794338795       -0.2706276587
 H           1.0    -0.0750788135       -4.7605788110        0.3201384796

          INTERNUCLEAR DISTANCES (ANGS.)
          ------------------------------

                1 C          2 C          3 C          4 C          5 C     

   1 C       0.0000000    1.5020792 *  2.5737249 *  2.8406710 *  2.4245349 *
   2 C       1.5020792 *  0.0000000    1.5417441 *  2.5723578 *  2.8991083 *
   3 C       2.5737249 *  1.5417441 *  0.0000000    1.5017932 *  2.4924265 *
   4 C       2.8406710 *  2.5723578 *  1.5017932 *  0.0000000    1.3368585 *
   5 C       2.4245349 *  2.8991083 *  2.4924265 *  1.3368585 *  0.0000000  
   6 C       1.3363183 *  2.4902168 *  2.9032084 *  2.4252235 *  1.4414322 *
   7 H       1.0864230 *  2.2253422 *  3.5554140    3.9258887    3.4103385  
   8 H       2.1082185 *  1.0924516 *  2.1606254 *  3.2232194    3.5644546  
   9 H       2.1289412 *  1.0928473 *  2.1624676 *  3.3617312    3.7489247  
  10 H       3.3615735    2.1640276 *  1.0967635 *  2.1268532 *  3.2274984  
  11 H       3.2291641    2.1601932 *  1.0912967 *  2.1146407 *  3.1637811  
  12 H       3.9267435    3.5569704    2.2245974 *  1.0866476 *  2.0991994 *
  13 H       3.3792878    3.9852219    3.4852411    2.1110215 *  1.0878607 *
  14 H       2.1105040 *  3.4833894    3.9887376    3.3791832    2.1724134 *

                6 C          7 H          8 H          9 H         10 H     

   1 C       1.3363183 *  1.0864230 *  2.1082185 *  2.1289412 *  3.3615735  
   2 C       2.4902168 *  2.2253422 *  1.0924516 *  1.0928473 *  2.1640276 *
   3 C       2.9032084 *  3.5554140    2.1606254 *  2.1624676 *  1.0967635 *
   4 C       2.4252235 *  3.9258887    3.2232194    3.3617312    2.1268532 *
   5 C       1.4414322 *  3.4103385    3.5644546    3.7489247    3.2274984  
   6 C       0.0000000    2.0995397 *  3.1244057    3.2526642    3.7293495  
   7 H       2.0995397 *  0.0000000    2.5809110 *  2.5052721 *  4.2846243  
   8 H       3.1244057    2.5809110 *  0.0000000    1.7441592 *  2.2649781 *
   9 H       3.2526642    2.5052721 *  1.7441592 *  0.0000000    2.7837668 *
  10 H       3.7293495    4.2846243    2.2649781 *  2.7837668 *  0.0000000  
  11 H       3.6014222    4.1218583    2.9123026 *  2.2655626 *  1.7457734 *
  12 H       3.4101890    5.0113749    4.1351058    4.2749746    2.5244906 *
  13 H       2.1721739 *  4.2668521    4.6117898    4.8226668    4.1329873  
  14 H       1.0876385 *  2.4317164 *  4.0402848    4.1590124    4.8025569  

               11 H         12 H         13 H         14 H     

   1 C       3.2291641    3.9267435    3.3792878    2.1105040 *
   2 C       2.1601932 *  3.5569704    3.9852219    3.4833894  
   3 C       1.0912967 *  2.2245974 *  3.4852411    3.9887376  
   4 C       2.1146407 *  1.0866476 *  2.1110215 *  3.3791832  
   5 C       3.1637811    2.0991994 *  1.0878607 *  2.1724134 *
   6 C       3.6014222    3.4101890    2.1721739 *  1.0876385 *
   7 H       4.1218583    5.0113749    4.2668521    2.4317164 *
   8 H       2.9123026 *  4.1351058    4.6117898    4.0402848  
   9 H       2.2655626 *  4.2749746    4.8226668    4.1590124  
  10 H       1.7457734 *  2.5244906 *  4.1329873    4.8025569  
  11 H       0.0000000    2.5608801 *  4.0795300    4.6486977  
  12 H       2.5608801 *  0.0000000    2.4306511 *  4.2650935  
  13 H       4.0795300    2.4306511 *  0.0000000    2.4530954 *
  14 H       4.6486977    4.2650935    2.4530954 *  0.0000000  

  * ... LESS THAN  3.000


 TOTAL NUMBER OF BASIS SET SHELLS             =   14
 NUMBER OF CARTESIAN GAUSSIAN BASIS FUNCTIONS =   32
 NUMBER OF ELECTRONS                          =   32
 CHARGE OF MOLECULE                           =    0
 SPIN MULTIPLICITY                            =    1
 NUMBER OF OCCUPIED ORBITALS (ALPHA)          =   16
 NUMBER OF OCCUPIED ORBITALS (BETA )          =   16
 TOTAL NUMBER OF ATOMS                        =   14
 THE NUCLEAR REPULSION ENERGY IS      218.6924018589

 THE PARAMETERS USED IN THIS CALCULATION ARE DESCRIBED IN:

 H:  (PM6) J. J. P. STEWART, J Mol Model (2007) 13:1173-1213                    
 C:  (PM6) J. J. P. STEWART, J Mol Model (2007) 13:1173-1213                    

 THERE ARE    6 HEAVY AND    8 LIGHT ATOMS,
 YIELDING A TOTAL OF      2008 MOPAC 2E- INTEGRALS.

     $CONTRL OPTIONS
     ---------------
 SCFTYP=RHF          RUNTYP=OPTIMIZE     EXETYP=RUN     
 MPLEVL=       0     CITYP =NONE         CCTYP =NONE         VBTYP =NONE    
 DFTTYP=NONE         TDDFT =NONE    
 MULT  =       1     ICHARG=       0     NZVAR =       0     COORD =UNIQUE  
 PP    =NONE         RELWFN=NONE         LOCAL =NONE         NUMGRD=       F
 ISPHER=      -1     NOSYM =       0     MAXIT =     200     UNITS =ANGS    
 PLTORB=       F     MOLPLT=       F     AIMPAC=       F     FRIEND=        
 NPRINT=       7     IREST =       0     GEOM  =INPUT   
 NORMF =       0     NORMP =       0     ITOL  =      20     ICUT  =       9
 INTTYP=BEST         GRDTYP=BEST         QMTTOL= 1.0E-06

     $SYSTEM OPTIONS
     ---------------
  REPLICATED MEMORY=   250000000 WORDS (ON EVERY NODE).
 DISTRIBUTED MEMDDI=           0 MILLION WORDS IN AGGREGATE,
 MEMDDI DISTRIBUTED OVER   1 PROCESSORS IS           0 WORDS/PROCESSOR.
 TOTAL MEMORY REQUESTED ON EACH PROCESSOR=   250000000 WORDS.
 TIMLIM=        2879.00 MINUTES, OR       2.0 DAYS.
 PARALL= F  BALTYP=  DLB     KDIAG=    0  COREFL= F
 MXSEQ2=     300 MXSEQ3=     150  mem10=         0

          ----------------
          PROPERTIES INPUT
          ----------------

     MOMENTS            FIELD           POTENTIAL          DENSITY
 IEMOM =       1   IEFLD =       0   IEPOT =       0   IEDEN =       0
 WHERE =COMASS     WHERE =NUCLEI     WHERE =NUCLEI     WHERE =NUCLEI  
 OUTPUT=BOTH       OUTPUT=BOTH       OUTPUT=BOTH       OUTPUT=BOTH    
 IEMINT=       0   IEFINT=       0                     IEDINT=       0
                                                       MORB  =       0
          EXTRAPOLATION IN EFFECT
 ORBITAL PRINTING OPTION: NPREO=     1    32     2     1

     -------------------------------
     INTEGRAL TRANSFORMATION OPTIONS
     -------------------------------
     NWORD  =            0
     CUTOFF = 1.0E-09     MPTRAN =       0
     DIRTRF =       T     AOINTS =DUP     

          ----------------------
          INTEGRAL INPUT OPTIONS
          ----------------------
 NOPK  =       1 NORDER=       0 SCHWRZ=       T

     ------------------------------------------
     THE POINT GROUP IS C1 , NAXIS= 0, ORDER= 1
     ------------------------------------------

     DIMENSIONS OF THE SYMMETRY SUBSPACES ARE
 A   =   32

 ..... DONE SETTING UP THE RUN .....
 STEP CPU TIME =     0.01 TOTAL CPU TIME =          0.0 (      0.0 MIN)
 TOTAL WALL CLOCK TIME=          0.0 SECONDS, CPU UTILIZATION IS    50.00%


          -----------------------------
          STATIONARY POINT LOCATION RUN
          -----------------------------

 OBTAINING INITIAL HESSIAN, HESS=GUESS   
 CARTESIAN COORDINATE OPTIMIZATION USING BADGER'S RULE FORCE CONSTANT GUESS

          PARAMETERS CONTROLLING GEOMETRY SEARCH ARE
          METHOD =QA                  UPHESS =BFGS    
          NNEG   =         0          NFRZ   =         0
          NSTEP  =       999          IFOLOW =         1
          HESS   =GUESS               RESTAR =         F
          IHREP  =         0          HSSEND =         F
          NPRT   =         0          NPUN   =         0
          OPTTOL = 5.000E-04          RMIN   = 1.500E-03
          RMAX   = 1.000E-01          RLIM   = 7.000E-02
          DXMAX  = 3.000E-01          PURIFY =         F
          MOVIE  =         F          TRUPD  =         T
          TRMAX  = 5.000E-01          TRMIN  = 5.000E-02
          ITBMAT =         5          STPT   =         F
          STSTEP = 1.000E-02          PROJCT=          T

 BEGINNING GEOMETRY SEARCH POINT NSERCH=   0 ...

 COORDINATES OF ALL ATOMS ARE (ANGS)
   ATOM   CHARGE       X              Y              Z
 ------------------------------------------------------------
 C           6.0   1.1741600000  -0.7928500000   0.1482300000
 C           6.0   1.2872200000   0.6965200000  -0.0106300000
 C           6.0  -0.0493900000   1.4647900000  -0.0251100000
 C           6.0  -1.2817100000   0.6108500000  -0.1120400000
 C           6.0  -1.2384700000  -0.7249700000  -0.0819400000
 C           6.0   0.0045700000  -1.4359100000   0.0828100000
 H           1.0   2.0915400000  -1.3553600000   0.2976000000
 H           1.0   1.8195200000   0.8904800000  -0.9447000000
 H           1.0   1.9217600000   1.0963200000   0.7842500000
 H           1.0  -0.0471800000   2.1707600000  -0.8644500000
 H           1.0  -0.1195800000   2.0746200000   0.8771700000
 H           1.0  -2.2402100000   1.1165100000  -0.1919700000
 H           1.0  -2.1522600000  -1.3120600000  -0.1432100000
 H           1.0  -0.0397300000  -2.5191900000   0.1694100000

          ********************
          1 ELECTRON INTEGRALS
          ********************

          **************************
          1 AND 2 ELECTRON INTEGRALS
          **************************

 MOPAC ONE- AND TWO-ELECTRON INTEGRALS REQUIRE      3064 WORDS.
 ...... END OF ONE- AND TWO-ELECTRON INTEGRALS......
 STEP CPU TIME =     0.00 TOTAL CPU TIME =          0.0 (      0.0 MIN)
 TOTAL WALL CLOCK TIME=          0.0 SECONDS, CPU UTILIZATION IS    33.33%
 ...... END OF ONE-ELECTRON INTEGRALS ......
 STEP CPU TIME =     0.00 TOTAL CPU TIME =          0.0 (      0.0 MIN)
 TOTAL WALL CLOCK TIME=          0.0 SECONDS, CPU UTILIZATION IS    33.33%

          -------------
          GUESS OPTIONS
          -------------
          GUESS =HUCKEL            NORB  =       0          NORDER=       0
          MIX   =       F          PRTMO =       F          PUNMO =       F
          TOLZ  = 1.0E-08          TOLE  = 1.0E-05
          SYMDEN=       F          PURIFY=       F

 INITIAL GUESS ORBITALS GENERATED BY HUCKEL   ROUTINE.

 SYMMETRIES FOR INITIAL GUESS ORBITALS FOLLOW.   BOTH SET(S).
    16 ORBITALS ARE OCCUPIED (    0 CORE ORBITALS).
     1=A        2=A        3=A        4=A        5=A        6=A        7=A   
     8=A        9=A       10=A       11=A       12=A       13=A       14=A   
    15=A       16=A       17=A       18=A       19=A       20=A       21=A   
    22=A       23=A       24=A       25=A       26=A   
 ...... END OF INITIAL ORBITAL SELECTION ......
 STEP CPU TIME =     0.01 TOTAL CPU TIME =          0.0 (      0.0 MIN)
 TOTAL WALL CLOCK TIME=          0.0 SECONDS, CPU UTILIZATION IS    50.00%

          --------------------------
               R-PM6 SCF CALCULATION
          --------------------------

     NUCLEAR ENERGY =       102.0041816280
     MAXIT =  200     NPUNCH=    2
     EXTRAP=T  DAMP=F  SHIFT=F  RSTRCT=F  DIIS=F  DEM=F  SOSCF=F
     DENSITY MATRIX CONV=  2.00E-05
     MEMORY REQUIRED FOR RHF ITERS=      9848 WORDS.

                                                                                   NONZERO     BLOCKS
 ITER EX DEM     TOTAL ENERGY        E CHANGE  DENSITY CHANGE    DIIS ERROR      INTEGRALS    SKIPPED
   1  0  0      -30.9002272457   -30.9002272457   0.112781510   0.000000000              0          0
   2  1  0      -30.9664526600    -0.0662254142   0.025811214   0.000000000              0          0
   3  2  0      -30.9718426432    -0.0053899833   0.012762089   0.000000000              0          0
   4  3  0      -30.9725640489    -0.0007214057   0.006864082   0.000000000              0          0
   5  0  0      -30.9726936801    -0.0001296312   0.007333768   0.000000000              0          0
   6  1  0      -30.9727289669    -0.0000352868   0.000247111   0.000000000              0          0
   7  2  0      -30.9727291033    -0.0000001364   0.000131310   0.000000000              0          0
   8  3  0      -30.9727291346    -0.0000000313   0.000070088   0.000000000              0          0
   9  4  0      -30.9727291430    -0.0000000084   0.000037559   0.000000000              0          0
  10  5  0      -30.9727291455    -0.0000000025   0.000020202   0.000000000              0          0

          ----------------
          ENERGY CONVERGED
          ----------------
     TIME TO FORM FOCK OPERATORS=       0.0 SECONDS (       0.0 SEC/ITER)
     FOCK TIME ON FIRST ITERATION=       0.0, LAST ITERATION=       0.0
     TIME TO SOLVE SCF EQUATIONS=       0.0 SECONDS (       0.0 SEC/ITER)

 FINAL R-PM6 ENERGY IS      -30.9727291455 AFTER  10 ITERATIONS

 HEAT OF FORMATION IS        20.81462 KCAL/MOL
 

          ------------
          EIGENVECTORS
          ------------

                      1          2          3          4          5
                   -1.0799    -0.9617    -0.9534    -0.8032    -0.7632
                     A          A          A          A          A   
    1  C  1  S    0.362743   0.072650  -0.466659   0.031151   0.364694
    2  C  1  X   -0.106745  -0.140560   0.020245  -0.166313   0.132672
    3  C  1  Y    0.052046  -0.182487   0.028758  -0.267288  -0.058306
    4  C  1  Z   -0.016813   0.003855   0.005425   0.016910   0.017815
    5  C  2  S    0.369939  -0.395278  -0.230886  -0.363834  -0.132277
    6  C  2  X   -0.086076   0.022884  -0.079728  -0.191072   0.044072
    7  C  2  Y   -0.041819  -0.106566   0.139566   0.065815  -0.241923
    8  C  2  Z    0.002905   0.003725  -0.011678   0.003220   0.021031
    9  C  3  S    0.368627  -0.395488   0.231454   0.364247  -0.133817
   10  C  3  X    0.007959  -0.103245  -0.160905  -0.153880  -0.231147
   11  C  3  Y   -0.095678  -0.033553  -0.002552   0.131498  -0.085070
   12  C  3  Z   -0.000614  -0.001341  -0.008255   0.002871  -0.008159
   13  C  4  S    0.361359   0.071457   0.468275  -0.029041   0.364584
   14  C  4  X    0.099524  -0.086140  -0.013953   0.145998  -0.118933
   15  C  4  Y   -0.065554  -0.213421  -0.032619   0.279826   0.083451
   16  C  4  Z    0.010258  -0.000761   0.001144   0.011916  -0.010724
   17  C  5  S    0.355144   0.404915   0.268987  -0.274586  -0.213006
   18  C  5  X    0.099340   0.054247  -0.107982   0.155481  -0.099993
   19  C  5  Y    0.080452  -0.050868   0.186201  -0.084212   0.329466
   20  C  5  Z    0.009703   0.011417  -0.013150   0.019876  -0.021173
   21  C  6  S    0.355938   0.405756  -0.266927   0.273698  -0.214260
   22  C  6  X    0.019309  -0.071200  -0.215092   0.152270   0.333576
   23  C  6  Y    0.126789   0.021282  -0.001494  -0.090871   0.081920
   24  C  6  Z   -0.006223  -0.006173  -0.017539   0.025537   0.027056
   25  H  7  S    0.114936   0.020821  -0.213552   0.011612   0.253328
   26  H  8  S    0.147068  -0.186794  -0.107155  -0.211426  -0.083723
   27  H  9  S    0.142036  -0.193069  -0.107324  -0.212025  -0.088348
   28  H 10  S    0.141760  -0.191368   0.107442   0.210184  -0.089618
   29  H 11  S    0.145461  -0.188314   0.106656   0.212857  -0.084418
   30  H 12  S    0.114437   0.020458   0.214282  -0.010172   0.253162
   31  H 13  S    0.106883   0.176318   0.117656  -0.171519  -0.153291
   32  H 14  S    0.107189   0.176718  -0.116789   0.171150  -0.154140

                      6          7          8          9         10
                   -0.6351    -0.5923    -0.5736    -0.5347    -0.5121
                     A          A          A          A          A   
    1  C  1  S   -0.025603  -0.221818  -0.096598  -0.034385  -0.076709
    2  C  1  X   -0.282707  -0.206830  -0.092927  -0.244947   0.407472
    3  C  1  Y    0.201525   0.002215   0.047238  -0.328217  -0.211253
    4  C  1  Z   -0.047426  -0.105117   0.166382   0.027321   0.069396
    5  C  2  S   -0.011138   0.161671   0.074730   0.004094  -0.037106
    6  C  2  X   -0.239042   0.138269   0.068999  -0.133010   0.107411
    7  C  2  Y   -0.132314   0.122356   0.086833   0.383226   0.162599
    8  C  2  Z   -0.012990  -0.234193   0.467961  -0.006755  -0.014898
    9  C  3  S   -0.012172  -0.162302  -0.073833   0.003422   0.037873
   10  C  3  X    0.006511  -0.045166  -0.030324   0.396573  -0.088724
   11  C  3  Y   -0.273237  -0.181836  -0.098847   0.074062  -0.182153
   12  C  3  Z    0.001452  -0.216654   0.477279   0.005122  -0.040751
   13  C  4  S   -0.023355   0.221578   0.097271  -0.031764   0.078363
   14  C  4  X    0.318589  -0.120626  -0.066721  -0.155124   0.397256
   15  C  4  Y   -0.138934   0.177715   0.063158  -0.381007  -0.235776
   16  C  4  Z    0.025239  -0.086097   0.178496  -0.015529   0.024780
   17  C  5  S   -0.038833  -0.220439  -0.095861  -0.006391   0.033424
   18  C  5  X    0.335063   0.173547   0.085033  -0.186556   0.176427
   19  C  5  Y    0.184983   0.090037   0.057668   0.355365   0.256574
   20  C  5  Z    0.019793  -0.029703   0.132347  -0.030825   0.009496
   21  C  6  S   -0.036779   0.220266   0.095703  -0.005213  -0.033540
   22  C  6  X   -0.009039   0.018007  -0.027421   0.396318  -0.141357
   23  C  6  Y    0.380577  -0.206878  -0.085976   0.014002  -0.282958
   24  C  6  Z   -0.031158  -0.031559   0.127342   0.051820   0.020333
   25  H  7  S   -0.239474  -0.244887  -0.106083  -0.049132   0.305389
   26  H  8  S   -0.093547   0.273932  -0.207564   0.009365   0.050702
   27  H  9  S   -0.137291   0.046089   0.323465   0.044206   0.063550
   28  H 10  S   -0.124808  -0.043772  -0.334337   0.034070  -0.045042
   29  H 11  S   -0.109105  -0.266606   0.201106   0.016919  -0.076480
   30  H 12  S   -0.237013   0.248169   0.103184  -0.052192  -0.303540
   31  H 13  S   -0.265984  -0.240341  -0.124740  -0.032576  -0.193017
   32  H 14  S   -0.264203   0.247077   0.115619  -0.026710   0.194597

                     11         12         13         14         15
                   -0.4862    -0.4639    -0.4276    -0.4204    -0.4168
                     A          A          A          A          A   
    1  C  1  S   -0.016581  -0.013436   0.026046   0.011932   0.002171
    2  C  1  X   -0.024148   0.008222   0.120187   0.210348  -0.153357
    3  C  1  Y   -0.120785  -0.049210   0.363894  -0.133727   0.128887
    4  C  1  Z    0.009294  -0.234751  -0.044508   0.200659   0.311285
    5  C  2  S   -0.093654  -0.010709   0.011877   0.005307   0.002072
    6  C  2  X    0.478178   0.065369  -0.160200  -0.275654   0.137879
    7  C  2  Y    0.100297  -0.044707  -0.349700   0.194662  -0.136328
    8  C  2  Z    0.023266  -0.486309   0.027221  -0.141168  -0.104903
    9  C  3  S   -0.093107  -0.003365  -0.011679   0.000677  -0.005435
   10  C  3  X   -0.155195  -0.062653   0.214698   0.325138  -0.166671
   11  C  3  Y    0.461612   0.047482   0.316602  -0.111121   0.084345
   12  C  3  Z   -0.036047   0.487025   0.002874  -0.022343  -0.167294
   13  C  4  S   -0.015719  -0.009509  -0.026049   0.004105  -0.011322
   14  C  4  X   -0.090464  -0.000307  -0.248304  -0.275398   0.101722
   15  C  4  Y   -0.083623  -0.043774  -0.289449   0.111558  -0.057696
   16  C  4  Z   -0.011994   0.237147  -0.033501   0.170025   0.331639
   17  C  5  S    0.063049   0.004862  -0.036279   0.004285  -0.006972
   18  C  5  X    0.342881  -0.031231   0.142324   0.254073  -0.195367
   19  C  5  Y    0.089018   0.043200   0.270157  -0.124110   0.088170
   20  C  5  Z    0.025401   0.104090  -0.011082   0.297924   0.468179
   21  C  6  S    0.063290  -0.004100   0.036096   0.004312  -0.008131
   22  C  6  X   -0.097407   0.044171  -0.154121  -0.286153   0.084886
   23  C  6  Y    0.337559  -0.023497  -0.264979   0.187146  -0.051624
   24  C  6  Z   -0.035281  -0.104720  -0.015637   0.210991   0.512230
   25  H  7  S    0.022588  -0.009277  -0.058644   0.250924  -0.135389
   26  H  8  S    0.125439   0.336945  -0.127035   0.022361   0.113961
   27  H  9  S    0.202549  -0.265015  -0.159722  -0.158480  -0.041512
   28  H 10  S    0.197382  -0.268898   0.160500  -0.042058   0.153091
   29  H 11  S    0.131483   0.336006   0.128872  -0.084965  -0.073315
   30  H 12  S    0.021711  -0.037583   0.053228   0.252187  -0.134063
   31  H 13  S   -0.225681  -0.000248  -0.250649  -0.137681   0.072416
   32  H 14  S   -0.223640   0.007381   0.254202  -0.132498   0.071373

                     16         17         18         19         20
                   -0.3227     0.0208     0.0825     0.1463     0.1518
                     A          A          A          A          A   
    1  C  1  S    0.001771   0.001660  -0.003832  -0.067876   0.198326
    2  C  1  X    0.052052  -0.056579   0.046325   0.082915   0.084301
    3  C  1  Y   -0.046802   0.058173  -0.042623  -0.148147   0.422003
    4  C  1  Z   -0.503550   0.555516  -0.420171   0.046961  -0.032676
    5  C  2  S    0.000524   0.005540   0.001221  -0.154985  -0.136616
    6  C  2  X   -0.015429  -0.008119   0.001481   0.488155   0.112089
    7  C  2  Y    0.020363   0.006510  -0.005636  -0.368487   0.422782
    8  C  2  Z    0.166431  -0.024930   0.001835   0.021137  -0.050646
    9  C  3  S    0.007114  -0.009488   0.004651   0.153653  -0.134457
   10  C  3  X    0.022188  -0.013910   0.015155   0.564900   0.309424
   11  C  3  Y   -0.013733   0.009198  -0.004992  -0.235404   0.308663
   12  C  3  Z   -0.167594  -0.024548  -0.000387   0.014759   0.020739
   13  C  4  S    0.003963   0.000459  -0.002864   0.069058   0.197158
   14  C  4  X   -0.033122  -0.044146  -0.028949   0.174615   0.319637
   15  C  4  Y    0.007254   0.006188   0.013924   0.001762   0.284757
   16  C  4  Z    0.507675   0.560274   0.423139   0.016986   0.018454
   17  C  5  S   -0.002644   0.002948   0.009413   0.015587  -0.010450
   18  C  5  X   -0.041506   0.038710   0.060105   0.131244   0.042172
   19  C  5  Y    0.012819  -0.010464  -0.018803  -0.104786   0.106826
   20  C  5  Z    0.416937  -0.413406  -0.554157   0.019227   0.003309
   21  C  6  S   -0.000888  -0.001113  -0.006009  -0.016554  -0.009453
   22  C  6  X    0.044204   0.042331  -0.045497   0.156907   0.070022
   23  C  6  Y   -0.030616  -0.036469   0.042273  -0.061773   0.091779
   24  C  6  Z   -0.414935  -0.411006   0.554695   0.005808  -0.001342
   25  H  7  S    0.000354   0.002124  -0.002681  -0.158976  -0.020507
   26  H  8  S   -0.148913   0.080791  -0.070249  -0.048739  -0.102023
   27  H  9  S    0.122296  -0.067795   0.055641  -0.069309  -0.120591
   28  H 10  S    0.126786   0.074186   0.060813   0.065427  -0.124181
   29  H 11  S   -0.146350  -0.076995  -0.067221   0.054848  -0.098235
   30  H 12  S   -0.003218  -0.000748   0.008180   0.159653  -0.020450
   31  H 13  S    0.001731  -0.002545   0.001610   0.067514   0.161385
   32  H 14  S   -0.005780   0.007242   0.005315  -0.067565   0.161996

                     21         22         23         24         25
                    0.1720     0.1821     0.2009     0.2104     0.2168
                     A          A          A          A          A   
    1  C  1  S   -0.155878   0.113512   0.002321  -0.345021  -0.081750
    2  C  1  X   -0.001163   0.220523   0.038624   0.230221  -0.350645
    3  C  1  Y   -0.310550   0.215891   0.020425   0.028828   0.117975
    4  C  1  Z    0.023370   0.002008  -0.065164   0.023693  -0.028574
    5  C  2  S    0.265033  -0.048847  -0.009461   0.063335  -0.147363
    6  C  2  X   -0.334291  -0.017502   0.036930  -0.022132  -0.072860
    7  C  2  Y   -0.238172   0.263484   0.082770  -0.120197  -0.028214
    8  C  2  Z    0.074194  -0.036795   0.432968   0.017836  -0.154980
    9  C  3  S   -0.266161   0.049367   0.007360   0.066119  -0.157758
   10  C  3  X    0.041861  -0.238383  -0.038102  -0.090030   0.013609
   11  C  3  Y    0.414342  -0.119623  -0.054309  -0.079673  -0.074096
   12  C  3  Z    0.046336  -0.028012   0.444666  -0.026747   0.172877
   13  C  4  S    0.156963  -0.114507  -0.006809  -0.347131  -0.076423
   14  C  4  X    0.269673  -0.074135  -0.014238  -0.093235   0.279645
   15  C  4  Y    0.161720  -0.300144  -0.018377   0.215861  -0.243612
   16  C  4  Z    0.007200  -0.004737  -0.069127  -0.011057   0.000790
   17  C  5  S    0.151559   0.172196  -0.017050   0.074708  -0.198348
   18  C  5  X    0.285512   0.363032  -0.021281   0.174407   0.084178
   19  C  5  Y   -0.076137  -0.330748  -0.000517   0.411848  -0.060201
   20  C  5  Z    0.038192   0.050670   0.019461   0.009128   0.022323
   21  C  6  S   -0.151195  -0.171955   0.029314   0.072228  -0.195803
   22  C  6  X    0.211823   0.468817   0.004075   0.264406  -0.089064
   23  C  6  Y   -0.205853  -0.144441   0.031984   0.358087   0.038871
   24  C  6  Z    0.035880   0.056504   0.019057  -0.007830  -0.022790
   25  H  7  S   -0.039935  -0.204338  -0.014633   0.085037   0.388767
   26  H  8  S    0.083008  -0.038794   0.375063  -0.000851  -0.001537
   27  H  9  S    0.020518  -0.021808  -0.385954  -0.006750   0.254195
   28  H 10  S   -0.025941   0.017021   0.393694  -0.020774   0.273352
   29  H 11  S   -0.078776   0.044231  -0.377103   0.009829  -0.002166
   30  H 12  S    0.038951   0.204255  -0.004137   0.085852   0.383505
   31  H 13  S    0.110613  -0.020094  -0.003407   0.305781   0.180524
   32  H 14  S   -0.108778   0.020063   0.007925   0.306682   0.175933

                     26         27         28         29         30
                    0.2230     0.2239     0.2312     0.2331     0.2402
                     A          A          A          A          A   
    1  C  1  S   -0.054386  -0.291339  -0.209453  -0.206480  -0.174329
    2  C  1  X   -0.131962   0.158996  -0.128047  -0.268018   0.041884
    3  C  1  Y    0.042334   0.164201   0.103416   0.098267   0.149808
    4  C  1  Z   -0.079915   0.005296  -0.012786  -0.036628  -0.009540
    5  C  2  S   -0.030174   0.157518   0.261939   0.110288  -0.351346
    6  C  2  X    0.009874   0.016555   0.200251   0.137754  -0.137125
    7  C  2  Y    0.040465   0.034541   0.028110  -0.008756  -0.177524
    8  C  2  Z    0.448806  -0.043051  -0.047177   0.013526   0.019733
    9  C  3  S   -0.033656  -0.157786   0.273606  -0.098528   0.356589
   10  C  3  X    0.009352  -0.023367  -0.077244   0.074765   0.082077
   11  C  3  Y    0.012851  -0.039394   0.197666  -0.103794   0.210144
   12  C  3  Z   -0.439038   0.006013   0.047824  -0.009122   0.021968
   13  C  4  S   -0.025262   0.299789  -0.208873   0.193086   0.186849
   14  C  4  X    0.112234  -0.082628   0.158634  -0.210139  -0.118939
   15  C  4  Y   -0.134551  -0.199319  -0.073549   0.176269  -0.123606
   16  C  4  Z    0.071212  -0.001928   0.005375  -0.019736  -0.008139
   17  C  5  S   -0.102934  -0.390418   0.139530   0.272445  -0.075326
   18  C  5  X    0.015985   0.073833  -0.145543   0.030609  -0.001282
   19  C  5  Y   -0.041200  -0.117328   0.007021  -0.218478  -0.203156
   20  C  5  Z   -0.028205   0.003904  -0.008854   0.013920   0.005877
   21  C  6  S   -0.035015   0.399544   0.163816  -0.264115   0.054670
   22  C  6  X   -0.040918   0.143938   0.077107   0.208376   0.161827
   23  C  6  Y    0.008637   0.001285  -0.128448   0.076702   0.115635
   24  C  6  Z    0.026568   0.017550   0.013897   0.013322   0.009112
   25  H  7  S    0.167900   0.171085   0.288148   0.372530   0.138005
   26  H  8  S    0.371068  -0.157928  -0.274500  -0.115413   0.307250
   27  H  9  S   -0.313542  -0.103255  -0.228832  -0.143819   0.315244
   28  H 10  S   -0.305526   0.138490  -0.231992   0.112136  -0.305890
   29  H 11  S    0.360625   0.125387  -0.293648   0.124000  -0.323134
   30  H 12  S    0.165744  -0.203797   0.296839  -0.351607  -0.149616
   31  H 13  S    0.063646   0.297055  -0.201918  -0.268137  -0.039724
   32  H 14  S    0.026354  -0.298974  -0.225388   0.255919   0.061992

                     31         32
                    0.2415     0.2444
                     A          A   
    1  C  1  S   -0.116144   0.136991
    2  C  1  X    0.296238  -0.119987
    3  C  1  Y   -0.115285  -0.242307
    4  C  1  Z    0.042788   0.013977
    5  C  2  S    0.149968   0.260435
    6  C  2  X   -0.074509   0.170983
    7  C  2  Y   -0.043891   0.003790
    8  C  2  Z   -0.012949  -0.012946
    9  C  3  S   -0.150338   0.237736
   10  C  3  X   -0.000231  -0.086692
   11  C  3  Y    0.085079   0.138797
   12  C  3  Z   -0.003981   0.013601
   13  C  4  S    0.111670   0.131326
   14  C  4  X    0.253543  -0.139915
   15  C  4  Y   -0.191153  -0.222941
   16  C  4  Z    0.022813  -0.010040
   17  C  5  S   -0.073202  -0.291415
   18  C  5  X   -0.365195   0.214455
   19  C  5  Y   -0.274042  -0.076430
   20  C  5  Z   -0.024722   0.021205
   21  C  6  S    0.081236  -0.294490
   22  C  6  X    0.056585  -0.179834
   23  C  6  Y    0.450481   0.147493
   24  C  6  Z   -0.029550  -0.031846
   25  H  7  S   -0.174341  -0.102554
   26  H  8  S   -0.068066  -0.214553
   27  H  9  S   -0.040121  -0.208682
   28  H 10  S    0.048646  -0.184091
   29  H 11  S    0.059412  -0.200751
   30  H 12  S    0.175957  -0.095073
   31  H 13  S   -0.326351   0.296619
   32  H 14  S    0.319035   0.300377
 ...... END OF RHF CALCULATION ......
 STEP CPU TIME =     0.02 TOTAL CPU TIME =          0.0 (      0.0 MIN)
 TOTAL WALL CLOCK TIME=          0.1 SECONDS, CPU UTILIZATION IS    40.00%

     ----------------------------------------------------------------
     PROPERTY VALUES FOR THE RHF   SELF-CONSISTENT FIELD WAVEFUNCTION
     ----------------------------------------------------------------

                    -------------
                    MOPAC CHARGES
                    -------------
         ATOM NO.   TYPE          CHARGE        ATOM  ELECTRON DENSITY
           1         C             -0.1286          4.1286
           2         C             -0.2534          4.2534
           3         C             -0.2531          4.2531
           4         C             -0.1285          4.1285
           5         C             -0.1684          4.1684
           6         C             -0.1686          4.1686
           7         H              0.1337          0.8663
           8         H              0.1394          0.8606
           9         H              0.1362          0.8638
          10         H              0.1375          0.8625
          11         H              0.1384          0.8616
          12         H              0.1336          0.8664
          13         H              0.1408          0.8592
          14         H              0.1408          0.8592

          ---------------------
          ELECTROSTATIC MOMENTS
          ---------------------

 POINT   1           X           Y           Z (ANGS)      CHARGE
                 0.000000    0.000000    0.000000        0.00 (A.U.)
         DX          DY          DZ         /D/  (DEBYE)
     0.373839    0.662138    0.002302    0.760387
 ...... END OF PROPERTY EVALUATION ......
 STEP CPU TIME =     0.00 TOTAL CPU TIME =          0.0 (      0.0 MIN)
 TOTAL WALL CLOCK TIME=          0.1 SECONDS, CPU UTILIZATION IS    36.36%

          NSERCH=  0     ENERGY=     -30.9727291

                                 -----------------------
                                 GRADIENT (HARTREE/BOHR)
                                 -----------------------
        ATOM     ZNUC       DE/DX         DE/DY         DE/DZ
 --------------------------------------------------------------
    1  C            6.0    -0.0038177    -0.0029475     0.0003156
    2  C            6.0     0.0041732     0.0078251    -0.0015091
    3  C            6.0     0.0045506     0.0070943     0.0015240
    4  C            6.0    -0.0005982    -0.0042234     0.0012152
    5  C            6.0     0.0129577     0.0008734    -0.0006790
    6  C            6.0    -0.0051848     0.0116464    -0.0012329
    7  H            1.0    -0.0037212    -0.0038229     0.0000735
    8  H            1.0    -0.0052379    -0.0019372     0.0085780
    9  H            1.0    -0.0050513    -0.0030105    -0.0063705
   10  H            1.0     0.0001407    -0.0044821     0.0053599
   11  H            1.0     0.0010119    -0.0059410    -0.0084923
   12  H            1.0    -0.0014999    -0.0051343     0.0006500
   13  H            1.0     0.0005459     0.0022835     0.0006786
   14  H            1.0     0.0017311     0.0017761    -0.0001110

          MAXIMUM GRADIENT = 0.0129577    RMS GRADIENT = 0.0047241

 NSERCH:   0  E=      -30.9727291455  GRAD. MAX=  0.0129577  R.M.S.=  0.0047241

          FORCE CONSTANT MATRIX NOT UPDATED --- TAKING FIRST STEP
          MIN SEARCH, CORRECT HESSIAN, TRYING PURE NR STEP
               NR STEP HAS LENGTH         =   9.257114
          TRIM/QA LAMBDA FOR NON-TS MODES =  -0.00819249
          TRIM/QA STEP HAS LENGTH         =   0.300000
          RADIUS OF STEP TAKEN=   0.30000  CURRENT TRUST RADIUS=   0.30000

 BEGINNING GEOMETRY SEARCH POINT NSERCH=   1 ...

 COORDINATES OF ALL ATOMS ARE (ANGS)
   ATOM   CHARGE       X              Y              Z
 ------------------------------------------------------------
 C           6.0   1.1720496475  -0.7998349948   0.1249877235
 C           6.0   1.2844628748   0.6891813723  -0.0159883059
 C           6.0  -0.0539286189   1.4581120164  -0.0192398114
 C           6.0  -1.2818177818   0.6046166943  -0.1403154020
 C           6.0  -1.2640606434  -0.7314839278   0.0336237033
 C           6.0   0.0038294249  -1.4547275246   0.0801689165
 H           1.0   2.1162180818  -1.3176201246   0.2875399060
 H           1.0   1.8228659142   0.9001236272  -0.9566602431
 H           1.0   1.9230364785   1.0937676772   0.7876258822
 H           1.0  -0.0415866159   2.1800111689  -0.8570816435
 H           1.0  -0.1259295213   2.0698631284   0.8952935770
 H           1.0  -2.2166173733   1.1568043895  -0.2273865275
 H           1.0  -2.1566623204  -1.3324427248  -0.1859457153
 H           1.0  -0.0516195466  -2.5358607777   0.1787979403

          INTERNUCLEAR DISTANCES (ANGS.)
          ------------------------------

                1 C          2 C          3 C          4 C          5 C     

   1 C       0.0000000    1.4998936 *  2.5733536 *  2.8397774 *  2.4387810 *
   2 C       1.4998936 *  0.0000000    1.5435533 *  2.5706818 *  2.9181712 *
   3 C       2.5733536 *  1.5435533 *  0.0000000    1.5002751 *  2.5023078 *
   4 C       2.8397774 *  2.5706818 *  1.5002751 *  0.0000000    1.3474921 *
   5 C       2.4387810 *  2.9181712 *  2.5023078 *  1.3474921 *  0.0000000  
   6 C       1.3400117 *  2.4991226 *  2.9151076 *  2.4377040 *  1.4604085 *
   7 H       1.0890265 *  2.1934444 *  3.5367131    3.9274295    3.4401037  
   8 H       2.1174002 *  1.1041912 *  2.1708215 *  3.2237872    3.6293141  
   9 H       2.1421488 *  1.1032960 *  2.1661417 *  3.3721558    3.7493534  
  10 H       3.3640536    2.1652757 *  1.1060152 *  2.1292710 *  3.2809454  
  11 H       3.2424201    2.1739189 *  1.1026309 *  2.1343642 *  3.1440997  
  12 H       3.9288255    3.5384917    2.1934753 *  1.0891937 *  2.1309912 *
  13 H       3.3853617    3.9946454    3.4980674    2.1259432 *  1.0982258 *
  14 H       2.1246288 *  3.4962773    3.9988802    3.3878931    2.1787301 *

                6 C          7 H          8 H          9 H         10 H     

   1 C       1.3400117 *  1.0890265 *  2.1174002 *  2.1421488 *  3.3640536  
   2 C       2.4991226 *  2.1934444 *  1.1041912 *  1.1032960 *  2.1652757 *
   3 C       2.9151076 *  3.5367131    2.1708215 *  2.1661417 *  1.1060152 *
   4 C       2.4377040 *  3.9274295    3.2237872    3.3721558    2.1292710 *
   5 C       1.4604085 *  3.4401037    3.6293141    3.7493534    3.2809454  
   6 C       0.0000000    2.1269666 *  3.1510685    3.2678248    3.7539082  
   7 H       2.1269666 *  0.0000000    2.5597806 *  2.4702624 *  4.2661111  
   8 H       3.1510685    2.5597806 *  0.0000000    1.7578584 *  2.2636721 *
   9 H       3.2678248    2.4702624 *  1.7578584 *  0.0000000    2.7829358 *
  10 H       3.7539082    4.2661111    2.2636721 *  2.7829358 *  0.0000000  
  11 H       3.6199454    4.1075094    2.9318641 *  2.2721392 *  1.7578581 *
  12 H       3.4416672    5.0161129    4.1128032    4.2627406    2.4847992 *
  13 H       2.1802512 *  4.2990598    4.6276342    4.8454392    4.1546722  
  14 H       1.0870379 *  2.4890671 *  4.0754079    4.1766183    4.8283119  

               11 H         12 H         13 H         14 H     

   1 C       3.2424201    3.9288255    3.3853617    2.1246288 *
   2 C       2.1739189 *  3.5384917    3.9946454    3.4962773  
   3 C       1.1026309 *  2.1934753 *  3.4980674    3.9988802  
   4 C       2.1343642 *  1.0891937 *  2.1259432 *  3.3878931  
   5 C       3.1440997    2.1309912 *  1.0982258 *  2.1787301 *
   6 C       3.6199454    3.4416672    2.1802512 *  1.0870379 *
   7 H       4.1075094    5.0161129    4.2990598    2.4890671 *
   8 H       2.9318641 *  4.1128032    4.6276342    4.0754079  
   9 H       2.2721392 *  4.2627406    4.8454392    4.1766183  
  10 H       1.7578581 *  2.4847992 *  4.1546722    4.8283119  
  11 H       0.0000000    2.5426487 *  4.1071449    4.6617143  
  12 H       2.5426487 *  0.0000000    2.4903139 *  4.2997648  
  13 H       4.1071449    2.4903139 *  0.0000000    2.4520314 *
  14 H       4.6617143    4.2997648    2.4520314 *  0.0000000  

  * ... LESS THAN  3.000


 MOPAC ONE- AND TWO-ELECTRON INTEGRALS REQUIRE      3064 WORDS.
 ...... END OF ONE- AND TWO-ELECTRON INTEGRALS......
 STEP CPU TIME =     0.01 TOTAL CPU TIME =          0.0 (      0.0 MIN)
 TOTAL WALL CLOCK TIME=          0.1 SECONDS, CPU UTILIZATION IS    41.67%
 ...... END OF ONE-ELECTRON INTEGRALS ......
 STEP CPU TIME =     0.00 TOTAL CPU TIME =          0.0 (      0.0 MIN)
 TOTAL WALL CLOCK TIME=          0.1 SECONDS, CPU UTILIZATION IS    38.46%

          --------------------------
               R-PM6 SCF CALCULATION
          --------------------------
     DENSITY MATRIX CONV=  2.00E-05

                                                                                   NONZERO     BLOCKS
 ITER EX DEM     TOTAL ENERGY        E CHANGE  DENSITY CHANGE    DIIS ERROR      INTEGRALS    SKIPPED
   1  0  0      -30.9573979509   -30.9573979509   0.072810444   0.000000000              0          0
   2  1  0      -30.9671684155    -0.0097704646   0.030595123   0.000000000              0          0
   3  2  0      -30.9692083551    -0.0020399397   0.014545012   0.000000000              0          0
   4  3  0      -30.9697286678    -0.0005203127   0.007660173   0.000000000              0          0
   5  0  0      -30.9698770041    -0.0001483363   0.009112605   0.000000000              0          0
   6  1  0      -30.9699425692    -0.0000655651   0.000176389   0.000000000              0          0
   7  2  0      -30.9699426420    -0.0000000728   0.000091522   0.000000000              0          0
   8  3  0      -30.9699426620    -0.0000000200   0.000048444   0.000000000              0          0
   9  4  0      -30.9699426681    -0.0000000061   0.000026043   0.000000000              0          0
  10  5  0      -30.9699426700    -0.0000000020   0.000014181   0.000000000              0          0

          -----------------
          DENSITY CONVERGED
          -----------------
     TIME TO FORM FOCK OPERATORS=       0.0 SECONDS (       0.0 SEC/ITER)
     FOCK TIME ON FIRST ITERATION=       0.0, LAST ITERATION=       0.0
     TIME TO SOLVE SCF EQUATIONS=       0.0 SECONDS (       0.0 SEC/ITER)

 FINAL R-PM6 ENERGY IS      -30.9699426700 AFTER  10 ITERATIONS

 HEAT OF FORMATION IS        22.56321 KCAL/MOL
 
 ...... END OF RHF CALCULATION ......
 STEP CPU TIME =     0.02 TOTAL CPU TIME =          0.1 (      0.0 MIN)
 TOTAL WALL CLOCK TIME=          0.2 SECONDS, CPU UTILIZATION IS    36.84%

          NSERCH=  1     ENERGY=     -30.9699427

                                 -----------------------
                                 GRADIENT (HARTREE/BOHR)
                                 -----------------------
        ATOM     ZNUC       DE/DX         DE/DY         DE/DZ
 --------------------------------------------------------------
    1  C            6.0    -0.0016892    -0.0015601    -0.0021768
    2  C            6.0     0.0030048     0.0013869    -0.0004092
    3  C            6.0    -0.0002183     0.0034065     0.0050092
    4  C            6.0     0.0012098     0.0037619    -0.0177231
    5  C            6.0     0.0014634    -0.0036244     0.0345210
    6  C            6.0     0.0010760     0.0007953    -0.0154221
    7  H            1.0    -0.0002871     0.0001911     0.0034118
    8  H            1.0    -0.0020933    -0.0005741     0.0033774
    9  H            1.0    -0.0021157    -0.0000678    -0.0025068
   10  H            1.0     0.0003312    -0.0021252     0.0016642
   11  H            1.0     0.0013206    -0.0011986    -0.0035763
   12  H            1.0    -0.0005928     0.0003401     0.0029766
   13  H            1.0    -0.0015612    -0.0016922    -0.0108462
   14  H            1.0     0.0001518     0.0009606     0.0017003

          MAXIMUM GRADIENT = 0.0345210    RMS GRADIENT = 0.0069562

 NSERCH:   1  E=      -30.9699426700  GRAD. MAX=  0.0345210  R.M.S.=  0.0069562

          HESSIAN UPDATED USING THE BFGS FORMULA
             ACTUAL ENERGY CHANGE WAS   0.0027864755
          PREDICTED ENERGY CHANGE WAS  -0.0019352944 RATIO= -1.440
          MIN SEARCH, CORRECT HESSIAN, TRYING PURE NR STEP
               NR STEP HAS LENGTH         =  27.488161
          TRIM/QA LAMBDA FOR NON-TS MODES =  -0.16181112
          TRIM/QA STEP HAS LENGTH         =   0.150000
          RADIUS OF STEP TAKEN=   0.15000  CURRENT TRUST RADIUS=   0.15000

 BEGINNING GEOMETRY SEARCH POINT NSERCH=   2 ...

 COORDINATES OF ALL ATOMS ARE (ANGS)
   ATOM   CHARGE       X              Y              Z
 ------------------------------------------------------------
 C           6.0   1.1726298781  -0.8002539863   0.1277363077
 C           6.0   1.2828808813   0.6853720196  -0.0160937420
 C           6.0  -0.0565794094   1.4544486794  -0.0215968046
 C           6.0  -1.2851436985   0.6038469837  -0.1132263348
 C           6.0  -1.2671275390  -0.7352575880  -0.0259458767
 C           6.0   0.0019291460  -1.4610892255   0.1087520751
 H           1.0   2.1243256628  -1.3091635694   0.2812439570
 H           1.0   1.8279697763   0.9018113744  -0.9643980702
 H           1.0   1.9274129767   1.0954371007   0.7930965897
 H           1.0  -0.0431116693   2.1838379329  -0.8616659615
 H           1.0  -0.1270011313   2.0743431618   0.9026116609
 H           1.0  -2.2118199554   1.1674107477  -0.2338863297
 H           1.0  -2.1601671110  -1.3375935584  -0.1672021585
 H           1.0  -0.0559578073  -2.5426400726   0.1759946877

          INTERNUCLEAR DISTANCES (ANGS.)
          ------------------------------

                1 C          2 C          3 C          4 C          5 C     

   1 C       0.0000000    1.4966386 *  2.5723413 *  2.8408121 *  2.4454568 *
   2 C       1.4966386 *  0.0000000    1.5445592 *  2.5711537 *  2.9190458 *
   3 C       2.5723413 *  1.5445592 *  0.0000000    1.4970937 *  2.5020510 *
   4 C       2.8408121 *  2.5711537 *  1.4970937 *  0.0000000    1.3420669 *
   5 C       2.4454568 *  2.9190458 *  2.5020510 *  1.3420669 *  0.0000000  
   6 C       1.3444716 *  2.5027424 *  2.9190367 *  2.4433159 *  1.4681553 *
   7 H       1.0900818 *  2.1850884 *  3.5334986    3.9293381    3.4533590  
   8 H       2.1258538 *  1.1150108 *  2.1784875 *  3.2411035    3.6249572  
   9 H       2.1461702 *  1.1128180 *  2.1745897 *  3.3739595    3.7719176  
  10 H       3.3707194    2.1722451 *  1.1126124 *  2.1445691 *  3.2737993  
  11 H       3.2485045    2.1819779 *  1.1150738 *  2.1296901 *  3.1711140  
  12 H       3.9315361    3.5345055    2.1846097 *  1.0912799 *  2.1344390 *
  13 H       3.3886957    3.9962236    3.4988258    2.1302044 *  1.0864077 *
  14 H       2.1325257 *  3.4999213    4.0019697    3.3904170    2.1850271 *

                6 C          7 H          8 H          9 H         10 H     

   1 C       1.3444716 *  1.0900818 *  2.1258538 *  2.1461702 *  3.3707194  
   2 C       2.5027424 *  2.1850884 *  1.1150108 *  1.1128180 *  2.1722451 *
   3 C       2.9190367 *  3.5334986    2.1784875 *  2.1745897 *  1.1126124 *
   4 C       2.4433159 *  3.9293381    3.2411035    3.3739595    2.1445691 *
   5 C       1.4681553 *  3.4533590    3.6249572    3.7719176    3.2737993  
   6 C       0.0000000    2.1348072 *  3.1732278    3.2728645    3.7721657  
   7 H       2.1348072 *  0.0000000    2.5549679 *  2.4663479 *  4.2667420  
   8 H       3.1732278    2.5549679 *  0.0000000    1.7709227 *  2.2704827 *
   9 H       3.2728645    2.4663479 *  1.7709227 *  0.0000000    2.7938903 *
  10 H       3.7721657    4.2667420    2.2704827 *  2.7938903 *  0.0000000  
  11 H       3.6257576    4.1112879    2.9466027 *  2.2783476 *  1.7696616 *
  12 H       3.4535631    5.0200536    4.1138901    4.2653398    2.4759901 *
  13 H       2.1831313 *  4.3079915    4.6428107    4.8528469    4.1670953  
  14 H       1.0851842 *  2.5072251 *  4.0882667    4.1892935    4.8390597  

               11 H         12 H         13 H         14 H     

   1 C       3.2485045    3.9315361    3.3886957    2.1325257 *
   2 C       2.1819779 *  3.5345055    3.9962236    3.4999213  
   3 C       1.1150738 *  2.1846097 *  3.4988258    4.0019697  
   4 C       2.1296901 *  1.0912799 *  2.1302044 *  3.3904170  
   5 C       3.1711140    2.1344390 *  1.0864077 *  2.1850271 *
   6 C       3.6257576    3.4535631    2.1831313 *  1.0851842 *
   7 H       4.1112879    5.0200536    4.3079915    2.5072251 *
   8 H       2.9466027 *  4.1138901    4.6428107    4.0882667  
   9 H       2.2783476 *  4.2653398    4.8528469    4.1892935  
  10 H       1.7696616 *  2.4759901 *  4.1670953    4.8390597  
  11 H       0.0000000    2.5417757 *  4.1133414    4.6743506  
  12 H       2.5417757 *  0.0000000    2.5064240 *  4.3104781  
  13 H       4.1133414    2.5064240 *  0.0000000    2.4490035 *
  14 H       4.6743506    4.3104781    2.4490035 *  0.0000000  

  * ... LESS THAN  3.000


 MOPAC ONE- AND TWO-ELECTRON INTEGRALS REQUIRE      3064 WORDS.
 ...... END OF ONE- AND TWO-ELECTRON INTEGRALS......
 STEP CPU TIME =     0.00 TOTAL CPU TIME =          0.1 (      0.0 MIN)
 TOTAL WALL CLOCK TIME=          0.2 SECONDS, CPU UTILIZATION IS    35.00%
 ...... END OF ONE-ELECTRON INTEGRALS ......
 STEP CPU TIME =     0.00 TOTAL CPU TIME =          0.1 (      0.0 MIN)
 TOTAL WALL CLOCK TIME=          0.2 SECONDS, CPU UTILIZATION IS    33.33%

          --------------------------
               R-PM6 SCF CALCULATION
          --------------------------
     DENSITY MATRIX CONV=  1.00E-04

                                                                                   NONZERO     BLOCKS
 ITER EX DEM     TOTAL ENERGY        E CHANGE  DENSITY CHANGE    DIIS ERROR      INTEGRALS    SKIPPED
   1  0  0      -30.9689199103   -30.9689199103   0.042513862   0.000000000              0          0
   2  1  0      -30.9726921605    -0.0037722501   0.018066124   0.000000000              0          0
   3  2  0      -30.9734396539    -0.0007474934   0.008169637   0.000000000              0          0
   4  3  0      -30.9736246363    -0.0001849824   0.003999801   0.000000000              0          0
   5  0  0      -30.9736765379    -0.0000519016   0.004811526   0.000000000              0          0
   6  1  0      -30.9736991343    -0.0000225964   0.000113615   0.000000000              0          0
   7  2  0      -30.9736991572    -0.0000000229   0.000059452   0.000000000              0          0
   8  3  0      -30.9736991631    -0.0000000059   0.000031579   0.000000000              0          0

          -----------------
          DENSITY CONVERGED
          -----------------
     TIME TO FORM FOCK OPERATORS=       0.0 SECONDS (       0.0 SEC/ITER)
     FOCK TIME ON FIRST ITERATION=       0.0, LAST ITERATION=       0.0
     TIME TO SOLVE SCF EQUATIONS=       0.0 SECONDS (       0.0 SEC/ITER)

 FINAL R-PM6 ENERGY IS      -30.9736991631 AFTER   8 ITERATIONS

 HEAT OF FORMATION IS        20.20590 KCAL/MOL
 
 ...... END OF RHF CALCULATION ......
 STEP CPU TIME =     0.02 TOTAL CPU TIME =          0.1 (      0.0 MIN)
 TOTAL WALL CLOCK TIME=          0.2 SECONDS, CPU UTILIZATION IS    36.00%

          NSERCH=  2     ENERGY=     -30.9736992

                                 -----------------------
                                 GRADIENT (HARTREE/BOHR)
                                 -----------------------
        ATOM     ZNUC       DE/DX         DE/DY         DE/DZ
 --------------------------------------------------------------
    1  C            6.0     0.0028505     0.0024414    -0.0045203
    2  C            6.0    -0.0000091    -0.0034627     0.0013719
    3  C            6.0    -0.0028706    -0.0015928    -0.0017690
    4  C            6.0     0.0018393    -0.0002079    -0.0018029
    5  C            6.0    -0.0054935     0.0003028     0.0099683
    6  C            6.0    -0.0006075    -0.0054871    -0.0003072
    7  H            1.0     0.0008992     0.0008501     0.0023424
    8  H            1.0     0.0006252     0.0007017    -0.0012428
    9  H            1.0     0.0007718     0.0016177     0.0009610
   10  H            1.0     0.0012174     0.0012602    -0.0008921
   11  H            1.0     0.0000924     0.0013155     0.0012195
   12  H            1.0    -0.0004035     0.0015861     0.0001480
   13  H            1.0     0.0011103     0.0000315    -0.0041962
   14  H            1.0    -0.0000220     0.0006434    -0.0012805

          MAXIMUM GRADIENT = 0.0099683    RMS GRADIENT = 0.0025516

 NSERCH:   2  E=      -30.9736991631  GRAD. MAX=  0.0099683  R.M.S.=  0.0025516

          HESSIAN UPDATED USING THE BFGS FORMULA
             ACTUAL ENERGY CHANGE WAS  -0.0037564931
          PREDICTED ENERGY CHANGE WAS  -0.0050084161 RATIO=  0.750
          MIN SEARCH, CORRECT HESSIAN, TRYING PURE NR STEP
               NR STEP HAS LENGTH         =  33.522823
          TRIM/QA LAMBDA FOR NON-TS MODES =  -0.03806306
          TRIM/QA STEP HAS LENGTH         =   0.212132
          RADIUS OF STEP TAKEN=   0.21213  CURRENT TRUST RADIUS=   0.21213

 BEGINNING GEOMETRY SEARCH POINT NSERCH=   3 ...

 COORDINATES OF ALL ATOMS ARE (ANGS)
   ATOM   CHARGE       X              Y              Z
 ------------------------------------------------------------
 C           6.0   1.1709629935  -0.7918480037   0.1788646831
 C           6.0   1.2840234453   0.6911481113  -0.0149690874
 C           6.0  -0.0527518369   1.4587820013  -0.0184596369
 C           6.0  -1.2839608171   0.6091158501  -0.1201320023
 C           6.0  -1.2522178806  -0.7294661794  -0.0847049896
 C           6.0   0.0083129561  -1.4504027754   0.0704031945
 H           1.0   2.1135677253  -1.3329299301   0.2564954697
 H           1.0   1.8256833612   0.8913841639  -0.9613477835
 H           1.0   1.9295466934   1.0928588113   0.7920241787
 H           1.0  -0.0486845995   2.1829652948  -0.8580940036
 H           1.0  -0.1309170058   2.0687863996   0.9046546671
 H           1.0  -2.2242053321   1.1440739462  -0.2271710497
 H           1.0  -2.1577691148  -1.3249943558  -0.1332063918
 H           1.0  -0.0513505880  -2.5289633340   0.2010627517

          INTERNUCLEAR DISTANCES (ANGS.)
          ------------------------------

                1 C          2 C          3 C          4 C          5 C     

   1 C       0.0000000    1.4998772 *  2.5693871 *  2.8423141 *  2.4382711 *
   2 C       1.4998772 *  0.0000000    1.5415064 *  2.5714455 *  2.9078391 *
   3 C       2.5693871 *  1.5415064 *  0.0000000    1.4993817 *  2.4963047 *
   4 C       2.8423141 *  2.5714455 *  1.4993817 *  0.0000000    1.3394269 *
   5 C       2.4382711 *  2.9078391 *  2.4963047 *  1.3394269 *  0.0000000  
   6 C       1.3406019 *  2.4941864 *  2.9111822 *  2.4388301 *  1.4603925 *
   7 H       1.0896329 *  2.2042524 *  3.5443189    3.9314870    3.4364370  
   8 H       2.1358871 *  1.1086580 *  2.1770386 *  3.2337604    3.5873576  
   9 H       2.1221531 *  1.1087425 *  2.1726231 *  3.3753025    3.7700329  
  10 H       3.3782152    2.1708268 *  1.1088029 *  2.1324862 *  3.2448236  
  11 H       3.2256615    2.1784516 *  1.1092138 *  2.1237551 *  3.1727536  
  12 H       3.9293545    3.5437044    2.2040444 *  1.0870590 *  2.1154689 *
  13 H       3.3855710    3.9905822    3.4919444    2.1223794 *  1.0849098 *
  14 H       2.1241735 *  3.4927083    3.9937833    3.3867440    2.1821859 *

                6 C          7 H          8 H          9 H         10 H     

   1 C       1.3406019 *  1.0896329 *  2.1358871 *  2.1221531 *  3.3782152  
   2 C       2.4941864 *  2.2042524 *  1.1086580 *  1.1087425 *  2.1708268 *
   3 C       2.9111822 *  3.5443189    2.1770386 *  2.1726231 *  1.1088029 *
   4 C       2.4388301 *  3.9314870    3.2337604    3.3753025    2.1324862 *
   5 C       1.4603925 *  3.4364370    3.5873576    3.7700329    3.2448236  
   6 C       0.0000000    2.1167257 *  3.1386799    3.2680354    3.7505625  
   7 H       2.1167257 *  0.0000000    2.5521741 *  2.4910050 *  4.2754139  
   8 H       3.1386799    2.5521741 *  0.0000000    1.7679629 *  2.2786177 *
   9 H       3.2680354    2.4910050 *  1.7679629 *  0.0000000    2.7972524 *
  10 H       3.7505625    4.2754139    2.2786177 *  2.7972524 *  0.0000000  
  11 H       3.6193995    4.1266810    2.9489873 *  2.2826806 *  1.7683557 *
  12 H       3.4356947    5.0185413    4.1236472    4.2772699    2.4920372 *
  13 H       2.1792420 *  4.2890849    4.6331464    4.8382038    4.1568594  
  14 H       1.0880830 *  2.4739523 *  4.0710234    4.1702260    4.8295022  

               11 H         12 H         13 H         14 H     

   1 C       3.2256615    3.9293545    3.3855710    2.1241735 *
   2 C       2.1784516 *  3.5437044    3.9905822    3.4927083  
   3 C       1.1092138 *  2.2040444 *  3.4919444    3.9937833  
   4 C       2.1237551 *  1.0870590 *  2.1223794 *  3.3867440  
   5 C       3.1727536    2.1154689 *  1.0849098 *  2.1821859 *
   6 C       3.6193995    3.4356947    2.1792420 *  1.0880830 *
   7 H       4.1266810    5.0185413    4.2890849    2.4739523 *
   8 H       2.9489873 *  4.1236472    4.6331464    4.0710234  
   9 H       2.2826806 *  4.2772699    4.8382038    4.1702260  
  10 H       1.7683557 *  2.4920372 *  4.1568594    4.8295022  
  11 H       0.0000000    2.5530332 *  4.0869344    4.6519539  
  12 H       2.5530332 *  0.0000000    2.4717487 *  4.2890424  
  13 H       4.0869344    2.4717487 *  0.0000000    2.4491378 *
  14 H       4.6519539    4.2890424    2.4491378 *  0.0000000  

  * ... LESS THAN  3.000


 MOPAC ONE- AND TWO-ELECTRON INTEGRALS REQUIRE      3064 WORDS.
 ...... END OF ONE- AND TWO-ELECTRON INTEGRALS......
 STEP CPU TIME =     0.01 TOTAL CPU TIME =          0.1 (      0.0 MIN)
 TOTAL WALL CLOCK TIME=          0.3 SECONDS, CPU UTILIZATION IS    38.46%
 ...... END OF ONE-ELECTRON INTEGRALS ......
 STEP CPU TIME =     0.00 TOTAL CPU TIME =          0.1 (      0.0 MIN)
 TOTAL WALL CLOCK TIME=          0.3 SECONDS, CPU UTILIZATION IS    37.04%

          --------------------------
               R-PM6 SCF CALCULATION
          --------------------------
     DENSITY MATRIX CONV=  2.00E-05

                                                                                   NONZERO     BLOCKS
 ITER EX DEM     TOTAL ENERGY        E CHANGE  DENSITY CHANGE    DIIS ERROR      INTEGRALS    SKIPPED
   1  0  0      -30.9675523818   -30.9675523818   0.039854140   0.000000000              0          0
   2  1  0      -30.9720694642    -0.0045170824   0.018623877   0.000000000              0          0
   3  2  0      -30.9730224617    -0.0009529976   0.009771118   0.000000000              0          0
   4  3  0      -30.9732656188    -0.0002431571   0.005241228   0.000000000              0          0
   5  0  0      -30.9733347748    -0.0000691559   0.006414542   0.000000000              0          0
   6  1  0      -30.9733652338    -0.0000304590   0.000069995   0.000000000              0          0
   7  2  0      -30.9733652621    -0.0000000284   0.000035343   0.000000000              0          0
   8  3  0      -30.9733652694    -0.0000000073   0.000019277   0.000000000              0          0
   9  4  0      -30.9733652715    -0.0000000021   0.000010967   0.000000000              0          0

          -----------------
          DENSITY CONVERGED
          -----------------
     TIME TO FORM FOCK OPERATORS=       0.0 SECONDS (       0.0 SEC/ITER)
     FOCK TIME ON FIRST ITERATION=       0.0, LAST ITERATION=       0.0
     TIME TO SOLVE SCF EQUATIONS=       0.0 SECONDS (       0.0 SEC/ITER)

 FINAL R-PM6 ENERGY IS      -30.9733652715 AFTER   9 ITERATIONS

 HEAT OF FORMATION IS        20.41543 KCAL/MOL
 
 ...... END OF RHF CALCULATION ......
 STEP CPU TIME =     0.01 TOTAL CPU TIME =          0.1 (      0.0 MIN)
 TOTAL WALL CLOCK TIME=          0.3 SECONDS, CPU UTILIZATION IS    35.48%

          NSERCH=  3     ENERGY=     -30.9733653

                                 -----------------------
                                 GRADIENT (HARTREE/BOHR)
                                 -----------------------
        ATOM     ZNUC       DE/DX         DE/DY         DE/DZ
 --------------------------------------------------------------
    1  C            6.0    -0.0017765     0.0016650     0.0148472
    2  C            6.0    -0.0004089     0.0008834    -0.0056578
    3  C            6.0     0.0014737    -0.0001985     0.0007252
    4  C            6.0    -0.0004977    -0.0006258     0.0018160
    5  C            6.0     0.0000115     0.0020426    -0.0011028
    6  C            6.0     0.0015711     0.0007401    -0.0101484
    7  H            1.0    -0.0004694    -0.0021800    -0.0042912
    8  H            1.0    -0.0001889     0.0010691     0.0008426
    9  H            1.0    -0.0009623    -0.0017778    -0.0001751
   10  H            1.0     0.0000448    -0.0008585     0.0002956
   11  H            1.0    -0.0001154    -0.0004827    -0.0008965
   12  H            1.0    -0.0002208    -0.0022358    -0.0003602
   13  H            1.0     0.0011682     0.0014372     0.0013858
   14  H            1.0     0.0003705     0.0005215     0.0027195

          MAXIMUM GRADIENT = 0.0148472    RMS GRADIENT = 0.0031885

 NSERCH:   3  E=      -30.9733652715  GRAD. MAX=  0.0148472  R.M.S.=  0.0031885

          HESSIAN UPDATED USING THE BFGS FORMULA
             ACTUAL ENERGY CHANGE WAS   0.0003338916
          PREDICTED ENERGY CHANGE WAS  -0.0020606928 RATIO= -0.162
          MIN SEARCH, CORRECT HESSIAN, TRYING PURE NR STEP
               NR STEP HAS LENGTH         =   4.336690
          TRIM/QA LAMBDA FOR NON-TS MODES =  -0.07485554
          TRIM/QA STEP HAS LENGTH         =   0.106066
          RADIUS OF STEP TAKEN=   0.10607  CURRENT TRUST RADIUS=   0.10607

 BEGINNING GEOMETRY SEARCH POINT NSERCH=   4 ...

 COORDINATES OF ALL ATOMS ARE (ANGS)
   ATOM   CHARGE       X              Y              Z
 ------------------------------------------------------------
 C           6.0   1.1738006177  -0.7966964597   0.1404733779
 C           6.0   1.2843248219   0.6928496685  -0.0114262210
 C           6.0  -0.0518048693   1.4597356814  -0.0148084235
 C           6.0  -1.2832124619   0.6090285467  -0.1334714307
 C           6.0  -1.2495220675  -0.7306402616  -0.0904374103
 C           6.0   0.0052701237  -1.4463229717   0.1036208007
 H           1.0   2.1130326041  -1.3286349237   0.2687907374
 H           1.0   1.8239845660   0.8916733789  -0.9594809739
 H           1.0   1.9309518771   1.0902988289   0.7924990034
 H           1.0  -0.0514582518   2.1816651122  -0.8557996728
 H           1.0  -0.1313659772   2.0672672444   0.9063125768
 H           1.0  -2.2227831618   1.1462563427  -0.2239778683
 H           1.0  -2.1590357246  -1.3262033653  -0.1318562006
 H           1.0  -0.0519420964  -2.5297668218   0.1949817050

          INTERNUCLEAR DISTANCES (ANGS.)
          ------------------------------

                1 C          2 C          3 C          4 C          5 C     

   1 C       0.0000000    1.5013450 *  2.5724905 *  2.8439448 *  2.4351953 *
   2 C       1.5013450 *  0.0000000    1.5405740 *  2.5718026 *  2.9073951 *
   3 C       2.5724905 *  1.5405740 *  0.0000000    1.5013821 *  2.4975974 *
   4 C       2.8439448 *  2.5718026 *  1.5013821 *  0.0000000    1.3407832 *
   5 C       2.4351953 *  2.9073951 *  2.4975974 *  1.3407832 *  0.0000000  
   6 C       1.3374738 *  2.4950504 *  2.9090308 *  2.4373900 *  1.4575197 *
   7 H       1.0870053 *  2.2026525 *  3.5414630    3.9307550    3.4341544  
   8 H       2.1173643 *  1.1088604 *  2.1757038 *  3.2275150    3.5823988  
   9 H       2.1352205 *  1.1056166 *  2.1724533 *  3.3793335    3.7697229  
  10 H       3.3711210    2.1711413 *  1.1083540 *  2.1241851 *  3.2407806  
  11 H       3.2391755    2.1761086 *  1.1062949 *  2.1294040 *  3.1736525  
  12 H       3.9299710    3.5426773    2.2034446 *  1.0860931 *  2.1184454 *
  13 H       3.3856076    3.9934710    3.4950792    2.1241920 *  1.0879458 *
  14 H       2.1234287 *  3.4947776    3.9950147    3.3876164    2.1800271 *

                6 C          7 H          8 H          9 H         10 H     

   1 C       1.3374738 *  1.0870053 *  2.1173643 *  2.1352205 *  3.3711210  
   2 C       2.4950504 *  2.2026525 *  1.1088604 *  1.1056166 *  2.1711413 *
   3 C       2.9090308 *  3.5414630    2.1757038 *  2.1724533 *  1.1083540 *
   4 C       2.4373900 *  3.9307550    3.2275150    3.3793335    2.1241851 *
   5 C       1.4575197 *  3.4341544    3.5823988    3.7697229    3.2407806  
   6 C       0.0000000    2.1174972 *  3.1470835    3.2584127    3.7531325  
   7 H       2.1174972 *  0.0000000    2.5538146 *  2.4816656 *  4.2745679  
   8 H       3.1470835    2.5538146 *  0.0000000    1.7664450 *  2.2786211 *
   9 H       3.2584127    2.4816656 *  1.7664450 *  0.0000000    2.7996283 *
  10 H       3.7531325    4.2745679    2.2786211 *  2.7996283 *  0.0000000  
  11 H       3.6067021    4.1201833    2.9473042 *  2.2848579 *  1.7676288 *
  12 H       3.4340952    5.0166927    4.1209351    4.2766659    2.4871514 *
  13 H       2.1803894 *  4.2908148    4.6333995    4.8396192    4.1558535  
  14 H       1.0887932 *  2.4769500 *  4.0691692    4.1705840    4.8271868  

               11 H         12 H         13 H         14 H     

   1 C       3.2391755    3.9299710    3.3856076    2.1234287 *
   2 C       2.1761086 *  3.5426773    3.9934710    3.4947776  
   3 C       1.1062949 *  2.2034446 *  3.4950792    3.9950147  
   4 C       2.1294040 *  1.0860931 *  2.1241920 *  3.3876164  
   5 C       3.1736525    2.1184454 *  1.0879458 *  2.1800271 *
   6 C       3.6067021    3.4340952    2.1803894 *  1.0887932 *
   7 H       4.1201833    5.0166927    4.2908148    2.4769500 *
   8 H       2.9473042 *  4.1209351    4.6333995    4.0691692  
   9 H       2.2848579 *  4.2766659    4.8396192    4.1705840  
  10 H       1.7676288 *  2.4871514 *  4.1558535    4.8271868  
  11 H       0.0000000    2.5494790 *  4.0871606    4.6524211  
  12 H       2.5494790 *  0.0000000    2.4749964 *  4.2896648  
  13 H       4.0871606    2.4749964 *  0.0000000    2.4485162 *
  14 H       4.6524211    4.2896648    2.4485162 *  0.0000000  

  * ... LESS THAN  3.000


 MOPAC ONE- AND TWO-ELECTRON INTEGRALS REQUIRE      3064 WORDS.
 ...... END OF ONE- AND TWO-ELECTRON INTEGRALS......
 STEP CPU TIME =     0.00 TOTAL CPU TIME =          0.1 (      0.0 MIN)
 TOTAL WALL CLOCK TIME=          0.3 SECONDS, CPU UTILIZATION IS    34.37%
 ...... END OF ONE-ELECTRON INTEGRALS ......
 STEP CPU TIME =     0.00 TOTAL CPU TIME =          0.1 (      0.0 MIN)
 TOTAL WALL CLOCK TIME=          0.3 SECONDS, CPU UTILIZATION IS    33.33%

          --------------------------
               R-PM6 SCF CALCULATION
          --------------------------
     DENSITY MATRIX CONV=  2.00E-05

                                                                                   NONZERO     BLOCKS
 ITER EX DEM     TOTAL ENERGY        E CHANGE  DENSITY CHANGE    DIIS ERROR      INTEGRALS    SKIPPED
   1  0  0      -30.9713849566   -30.9713849566   0.030934125   0.000000000              0          0
   2  1  0      -30.9735129323    -0.0021279758   0.013156235   0.000000000              0          0
   3  2  0      -30.9739439452    -0.0004310129   0.006003582   0.000000000              0          0
   4  3  0      -30.9740522778    -0.0001083325   0.002951172   0.000000000              0          0
   5  0  0      -30.9740829172    -0.0000306394   0.003645455   0.000000000              0          0
   6  1  0      -30.9740962726    -0.0000133554   0.000071529   0.000000000              0          0
   7  2  0      -30.9740962839    -0.0000000113   0.000036705   0.000000000              0          0
   8  3  0      -30.9740962867    -0.0000000029   0.000019189   0.000000000              0          0
   9  4  0      -30.9740962876    -0.0000000008   0.000010203   0.000000000              0          0

          -----------------
          DENSITY CONVERGED
          -----------------
     TIME TO FORM FOCK OPERATORS=       0.0 SECONDS (       0.0 SEC/ITER)
     FOCK TIME ON FIRST ITERATION=       0.0, LAST ITERATION=       0.0
     TIME TO SOLVE SCF EQUATIONS=       0.0 SECONDS (       0.0 SEC/ITER)

 FINAL R-PM6 ENERGY IS      -30.9740962876 AFTER   9 ITERATIONS

 HEAT OF FORMATION IS        19.95670 KCAL/MOL
 
 ...... END OF RHF CALCULATION ......
 STEP CPU TIME =     0.03 TOTAL CPU TIME =          0.1 (      0.0 MIN)
 TOTAL WALL CLOCK TIME=          0.4 SECONDS, CPU UTILIZATION IS    36.84%

          NSERCH=  4     ENERGY=     -30.9740963

                                 -----------------------
                                 GRADIENT (HARTREE/BOHR)
                                 -----------------------
        ATOM     ZNUC       DE/DX         DE/DY         DE/DZ
 --------------------------------------------------------------
    1  C            6.0    -0.0026665    -0.0028749    -0.0008900
    2  C            6.0    -0.0003267     0.0030267     0.0007233
    3  C            6.0     0.0026001     0.0012616     0.0028716
    4  C            6.0    -0.0015141     0.0006021    -0.0017928
    5  C            6.0     0.0036651    -0.0005650    -0.0052794
    6  C            6.0     0.0015878     0.0050352     0.0034294
    7  H            1.0    -0.0014788    -0.0010269    -0.0004664
    8  H            1.0    -0.0007947    -0.0009305     0.0012784
    9  H            1.0    -0.0011194    -0.0008200    -0.0013016
   10  H            1.0    -0.0007239    -0.0016616     0.0004241
   11  H            1.0     0.0004102    -0.0008113    -0.0018128
   12  H            1.0    -0.0000051    -0.0020233     0.0013358
   13  H            1.0    -0.0001859     0.0007874     0.0021001
   14  H            1.0     0.0005520     0.0000006    -0.0006197

          MAXIMUM GRADIENT = 0.0052794    RMS GRADIENT = 0.0019463

 NSERCH:   4  E=      -30.9740962876  GRAD. MAX=  0.0052794  R.M.S.=  0.0019463

          HESSIAN UPDATED USING THE BFGS FORMULA
             ACTUAL ENERGY CHANGE WAS  -0.0007310161
          PREDICTED ENERGY CHANGE WAS  -0.0014016718 RATIO=  0.522
          MIN SEARCH, CORRECT HESSIAN, TRYING PURE NR STEP
               NR STEP HAS LENGTH         =  11.398826
          TRIM/QA LAMBDA FOR NON-TS MODES =  -0.05291192
          TRIM/QA STEP HAS LENGTH         =   0.106066
          RADIUS OF STEP TAKEN=   0.10607  CURRENT TRUST RADIUS=   0.10607

 BEGINNING GEOMETRY SEARCH POINT NSERCH=   5 ...

 COORDINATES OF ALL ATOMS ARE (ANGS)
   ATOM   CHARGE       X              Y              Z
 ------------------------------------------------------------
 C           6.0   1.1740452119  -0.7997328851   0.1273921610
 C           6.0   1.2839699455   0.6881209058  -0.0071180447
 C           6.0  -0.0559156318   1.4567289786  -0.0212094771
 C           6.0  -1.2845913166   0.6053049547  -0.1178812837
 C           6.0  -1.2610320374  -0.7356526940  -0.0636480380
 C           6.0   0.0042651302  -1.4589324767   0.0901280012
 H           1.0   2.1227680435  -1.3141738719   0.2742783339
 H           1.0   1.8255255335   0.8923116458  -0.9621241057
 H           1.0   1.9338587047   1.0994077469   0.7946190702
 H           1.0  -0.0464393716   2.1895135556  -0.8573626608
 H           1.0  -0.1311726303   2.0685724870   0.9083603347
 H           1.0  -2.2145126123   1.1631490448  -0.2350669621
 H           1.0  -2.1628077198  -1.3361798665  -0.1438885001
 H           1.0  -0.0577212493  -2.5379275248   0.1989411713

          INTERNUCLEAR DISTANCES (ANGS.)
          ------------------------------

                1 C          2 C          3 C          4 C          5 C     

   1 C       0.0000000    1.4979604 *  2.5742001 *  2.8423905 *  2.4434001 *
   2 C       1.4979604 *  0.0000000    1.5447493 *  2.5722819 *  2.9167382 *
   3 C       2.5742001 *  1.5447493 *  0.0000000    1.4979694 *  2.5021279 *
   4 C       2.8423905 *  2.5722819 *  1.4979694 *  0.0000000    1.3422607 *
   5 C       2.4434001 *  2.9167382 *  2.5021279 *  1.3422607 *  0.0000000  
   6 C       1.3432491 *  2.5013875 *  2.9184070 *  2.4424363 *  1.4655230 *
   7 H       1.0891740 *  2.1890524 *  3.5372133    3.9304308    3.4494904  
   8 H       2.1152983 *  1.1166973 *  2.1780055 *  3.2354205    3.6033824  
   9 H       2.1515677 *  1.1109881 *  2.1800130 *  3.3815995    3.7830406  
  10 H       3.3756361    2.1787806 *  1.1118521 *  2.1423281 *  3.2652436  
  11 H       3.2466414    2.1786179 *  1.1153995 *  2.1271338 *  3.1756986  
  12 H       3.9327606    3.5379362    2.1889416 *  1.0907228 *  2.1316561 *
  13 H       3.3905687    3.9995970    3.5006263    2.1310335 *  1.0864027 *
  14 H       2.1315929 *  3.4999977    4.0007187    3.3890260    2.1829119 *

                6 C          7 H          8 H          9 H         10 H     
[...]
  10 H       3.4467367    2.1750977 *  1.1075538 *  2.1523064 *  3.3267895  
  11 H       3.0463540    2.1812045 *  1.1120851 *  2.1263039 *  3.0545856  
  12 H       3.9247327    3.4985193    2.2018379 *  1.0870249 *  2.1314202 *
  13 H       3.3842799    3.9597412    3.4935061    2.1322820 *  1.0874108 *
  14 H       2.1321723 *  3.4933452    3.9595649    3.3842846    2.1846726 *

                6 C          7 H          8 H          9 H         10 H     

   1 C       1.3420133 *  1.0869143 *  2.1264770 *  2.1518474 *  3.4467367  
   2 C       2.4885859 *  2.2014541 *  1.1121248 *  1.1076354 *  2.1750977 *
   3 C       2.8847954 *  3.4983762    2.1816087 *  2.1747719 *  1.1075538 *
   4 C       2.4388638 *  3.9246493    3.0471887    3.4464214    2.1523064 *
   5 C       1.4644122 *  3.4457503    3.3938831    3.8558590    3.3267895  
   6 C       0.0000000    2.1314922 *  3.0555677    3.3260026    3.8562294  
   7 H       2.1314922 *  0.0000000    2.6525775 *  2.4372776 *  4.3385864  
   8 H       3.0555677    2.6525775 *  0.0000000    1.7717526 *  2.3614720 *
   9 H       3.3260026    2.4372776 *  1.7717526 *  0.0000000    2.6527013 *
  10 H       3.8562294    4.3385864    2.3614720 *  2.6527013 *  0.0000000  
  11 H       3.3923755    3.8836865    3.0524790    2.3604619 *  1.7716152 *
  12 H       3.4456164    5.0101907    3.8844713    4.3385540    2.4377787 *
  13 H       2.1845223 *  4.3021683    4.3854840    4.9402624    4.2367851  
  14 H       1.0875244 *  2.5057027 *  4.0061261    4.2357744    4.9407683  

               11 H         12 H         13 H         14 H     

   1 C       3.0463540    3.9247327    3.3842799    2.1321723 *
   2 C       2.1812045 *  3.4985193    3.9597412    3.4933452  
   3 C       1.1120851 *  2.2018379 *  3.4935061    3.9595649  
   4 C       2.1263039 *  1.0870249 *  2.1322820 *  3.3842846  
   5 C       3.0545856    2.1314202 *  1.0874108 *  2.1846726 *
   6 C       3.3923755    3.4456164    2.1845223 *  1.0875244 *
   7 H       3.8836865    5.0101907    4.3021683    2.5057027 *
   8 H       3.0524790    3.8844713    4.3854840    4.0061261  
   9 H       2.3604619 *  4.3385540    4.9402624    4.2357744  
  10 H       1.7716152 *  2.4377787 *  4.2367851    4.9407683  
  11 H       0.0000000    2.6532456 *  4.0050303    4.3837672  
  12 H       2.6532456 *  0.0000000    2.5057779 *  4.3022532  
  13 H       4.0050303    2.5057779 *  0.0000000    2.4577157 *
  14 H       4.3837672    4.3022532    2.4577157 *  0.0000000  

  * ... LESS THAN  3.000


          NUCLEAR ENERGY    =      101.8758497418
          ELECTRONIC ENERGY =     -132.8508147790
          TOTAL ENERGY      =      -30.9749650372

          ------------------
          MOLECULAR ORBITALS
          ------------------

                      1          2          3          4          5
                   -1.0749    -0.9510    -0.9472    -0.7964    -0.7585
                     A          A          A          A          A   
    1  C  1  S   -0.364965  -0.068343   0.470464  -0.028087  -0.362808
    2  C  1  X    0.106200   0.141333  -0.019943   0.170072  -0.134751
    3  C  1  Y   -0.053903   0.184330  -0.028606   0.261024   0.059064
    4  C  1  Z    0.024120  -0.015434  -0.006871  -0.050871  -0.026049
    5  C  2  S   -0.371994   0.393731   0.228043   0.361979   0.142589
    6  C  2  X    0.090377  -0.024739   0.079997   0.186548  -0.046311
    7  C  2  Y    0.044481   0.103805  -0.141724  -0.068494   0.240090
    8  C  2  Z   -0.018023   0.004808   0.016773  -0.032796  -0.025285
    9  C  3  S   -0.371924   0.391483  -0.232061  -0.362081   0.142295
   10  C  3  X   -0.007081   0.103600   0.161841   0.152680   0.231074
   11  C  3  Y    0.100909   0.030957   0.002657  -0.127239   0.081804
   12  C  3  Z    0.015402  -0.006912   0.014303  -0.031825   0.019819
   13  C  4  S   -0.364841  -0.073020  -0.469754   0.028332  -0.362954
   14  C  4  X   -0.100488   0.087996   0.013612  -0.140153   0.119334
   15  C  4  Y    0.063822   0.215694   0.029391  -0.279681  -0.085957
   16  C  4  Z   -0.024408   0.008353  -0.008108  -0.041412   0.026584
   17  C  5  S   -0.349585  -0.411945  -0.266555   0.280311   0.210715
   18  C  5  X   -0.097865  -0.050873   0.102800  -0.151165   0.090519
   19  C  5  Y   -0.084147   0.050168  -0.185665   0.080888  -0.323670
   20  C  5  Z   -0.015106  -0.015709   0.024165  -0.047649   0.039952
   21  C  6  S   -0.349628  -0.409277   0.270485  -0.280485   0.210556
   22  C  6  X   -0.022959   0.071328   0.211881  -0.146744  -0.325648
   23  C  6  Y   -0.126515  -0.018067   0.005783   0.088338  -0.086228
   24  C  6  Z    0.018832   0.015380   0.020627  -0.047727  -0.032622
   25  H  7  S   -0.115171  -0.014203   0.214552  -0.001254  -0.255233
   26  H  8  S   -0.146217   0.175361   0.099554   0.207094   0.082824
   27  H  9  S   -0.136607   0.193431   0.106243   0.210401   0.096821
   28  H 10  S   -0.136522   0.192371  -0.108208  -0.210521   0.096646
   29  H 11  S   -0.146290   0.174412  -0.101358  -0.207096   0.082685
   30  H 12  S   -0.115095  -0.016349  -0.214342   0.001500  -0.255298
   31  H 13  S   -0.104150  -0.181914  -0.113663   0.174708   0.158083
   32  H 14  S   -0.104153  -0.180756   0.115432  -0.174801   0.157898

                      6          7          8          9         10
                   -0.6324    -0.6056    -0.5576    -0.5319    -0.5120
                     A          A          A          A          A   
    1  C  1  S    0.030192  -0.204302  -0.125128   0.027091  -0.062610
    2  C  1  X    0.288244  -0.205227  -0.062242   0.243922   0.410895
    3  C  1  Y   -0.185528  -0.023427   0.074015   0.322139  -0.207129
    4  C  1  Z    0.067741  -0.119446   0.156456  -0.077688   0.081643
    5  C  2  S    0.015762   0.159585   0.092467  -0.002681  -0.046011
    6  C  2  X    0.243934   0.084619   0.158998   0.109148   0.081271
    7  C  2  Y    0.132635   0.101053   0.112510  -0.385169   0.147356
    8  C  2  Z    0.000285  -0.309228   0.403344  -0.014673  -0.115129
    9  C  3  S    0.016034  -0.159398  -0.092613  -0.002697   0.045936
   10  C  3  X   -0.008813  -0.048829  -0.010289  -0.387447  -0.087409
   11  C  3  Y    0.277641  -0.131748  -0.183474  -0.100340  -0.146818
   12  C  3  Z   -0.007315  -0.305280   0.408237   0.023261  -0.109595
   13  C  4  S    0.029983   0.204340   0.125051   0.027393   0.062525
   14  C  4  X   -0.306558  -0.085447  -0.093337   0.156287   0.387104
   15  C  4  Y    0.153127   0.185817   0.020163   0.374925  -0.248445
   16  C  4  Z   -0.067213  -0.123353   0.157031   0.065747   0.082734
   17  C  5  S    0.040811  -0.209074  -0.115523   0.002224   0.038626
   18  C  5  X   -0.320276   0.162275   0.099064   0.173669   0.160809
   19  C  5  Y   -0.188751   0.070279   0.127340  -0.351464   0.255018
   20  C  5  Z   -0.049305  -0.017517   0.153156   0.080072   0.040858
   21  C  6  S    0.040567   0.209169   0.115489   0.002390  -0.038538
   22  C  6  X   -0.000257   0.021046  -0.056957  -0.392478  -0.137758
   23  C  6  Y   -0.370121  -0.176205  -0.145960  -0.030244  -0.265900
   24  C  6  Z    0.059215  -0.013048   0.158267  -0.072836   0.050011
   25  H  7  S    0.241476  -0.232839  -0.105348   0.053040   0.315159
   26  H  8  S    0.068162   0.292700  -0.179763   0.006380   0.084765
   27  H  9  S    0.160798   0.028237   0.318432  -0.070060   0.019191
   28  H 10  S    0.161110  -0.028187  -0.318240  -0.070437  -0.019123
   29  H 11  S    0.068203  -0.292591   0.179782   0.006479  -0.084278
   30  H 12  S    0.241227   0.233024   0.105397   0.052774  -0.315215
   31  H 13  S    0.262116  -0.216259  -0.183797   0.036831  -0.183086
   32  H 14  S    0.261874   0.216471   0.183989   0.037310   0.182735

                     11         12         13         14         15
                   -0.4863    -0.4647    -0.4291    -0.4138    -0.4121
                     A          A          A          A          A   
    1  C  1  S   -0.011904  -0.025832   0.026252  -0.002555   0.022890
    2  C  1  X   -0.019190  -0.062069   0.112746   0.242075  -0.059638
    3  C  1  Y   -0.096733  -0.078932   0.354962  -0.202095   0.075244
    4  C  1  Z    0.003528  -0.223874  -0.084826   0.022978   0.364385
    5  C  2  S   -0.086562  -0.005738   0.012162  -0.002354   0.013835
    6  C  2  X    0.475086   0.107229  -0.169683  -0.291621  -0.049778
    7  C  2  Y    0.083640  -0.097134  -0.351858   0.229791  -0.021620
    8  C  2  Z   -0.006592  -0.469945   0.025910  -0.146697  -0.158955
    9  C  3  S   -0.086662  -0.005859  -0.012069  -0.001804  -0.013905
   10  C  3  X   -0.167500  -0.130971   0.218021   0.348136   0.005086
   11  C  3  Y    0.452713   0.055447   0.324433  -0.133413   0.044472
   12  C  3  Z   -0.002226   0.470831   0.014469   0.151356  -0.154454
   13  C  4  S   -0.011964  -0.025911  -0.026298  -0.001758  -0.022974
   14  C  4  X   -0.074533  -0.033831  -0.250244  -0.293583  -0.101378
   15  C  4  Y   -0.065421  -0.087058  -0.278766   0.105098   0.027352
   16  C  4  Z   -0.000732   0.226876  -0.073629  -0.036080   0.364108
   17  C  5  S    0.065531  -0.004634  -0.033434   0.011315   0.010928
   18  C  5  X    0.349176  -0.123053   0.132798   0.294571  -0.132158
   19  C  5  Y    0.075349   0.083418   0.264758  -0.134514   0.004070
   20  C  5  Z    0.074133   0.074390   0.013895   0.084703   0.534932
   21  C  6  S    0.065690  -0.004530   0.033380   0.011831  -0.010441
   22  C  6  X   -0.112550   0.133184  -0.160829  -0.263626  -0.072425
   23  C  6  Y    0.337371  -0.065706  -0.248319   0.178767   0.133565
   24  C  6  Z   -0.081473  -0.074592   0.023251  -0.106503   0.528934
   25  H  7  S    0.018234  -0.069136  -0.054508   0.273036   0.004767
   26  H  8  S    0.075478   0.361891  -0.081026   0.058684   0.119564
   27  H  9  S    0.236393  -0.181764  -0.206577  -0.162947  -0.109728
   28  H 10  S    0.236592  -0.181745   0.206495  -0.167028   0.103152
   29  H 11  S    0.075512   0.361949   0.080945   0.063656  -0.117313
   30  H 12  S    0.018684  -0.068797   0.054235   0.273169   0.006043
   31  H 13  S   -0.224314   0.028857  -0.242547  -0.148856   0.023134
   32  H 14  S   -0.224270   0.028665   0.242898  -0.147709  -0.029050

                     16         17         18         19         20
                   -0.3239     0.0214     0.0801     0.1468     0.1548
                     A          A          A          A          A   
    1  C  1  S    0.009538  -0.001320   0.008145   0.087108  -0.188837
    2  C  1  X    0.056972  -0.062575  -0.064390  -0.077794  -0.068726
    3  C  1  Y   -0.092811   0.120242   0.074249   0.177816  -0.419864
    4  C  1  Z   -0.495922   0.540182   0.417172  -0.086362   0.069291
    5  C  2  S    0.012259   0.022999  -0.008806   0.114439   0.137821
    6  C  2  X   -0.040720  -0.039523   0.015178  -0.442904  -0.105084
    7  C  2  Y    0.041941   0.021431  -0.012554   0.394487  -0.416397
    8  C  2  Z    0.161517  -0.018957  -0.000557   0.008359   0.094774
    9  C  3  S    0.012150  -0.022917  -0.008761  -0.114096   0.138390
   10  C  3  X    0.054341  -0.038719  -0.018146  -0.564840  -0.306243
   11  C  3  Y   -0.018073   0.022658   0.006757   0.182439  -0.304049
   12  C  3  Z   -0.161866  -0.018996   0.000683   0.011996  -0.082907
   13  C  4  S    0.009531   0.001271   0.008213  -0.087654  -0.188912
   14  C  4  X   -0.101617  -0.127496   0.090583  -0.194766  -0.328254
   15  C  4  Y    0.015584   0.007756  -0.029219  -0.025594  -0.273226
   16  C  4  Z    0.497169   0.542117  -0.417887  -0.083357  -0.057036
   17  C  5  S   -0.001478  -0.000833  -0.000249  -0.041997   0.012543
   18  C  5  X   -0.090753   0.093331  -0.124296  -0.169312  -0.039682
   19  C  5  Y    0.026124  -0.014419   0.018269   0.111138  -0.110720
   20  C  5  Z    0.412201  -0.408428   0.540357  -0.026234  -0.015142
   21  C  6  S   -0.001433   0.000867  -0.000316   0.042069   0.012410
   22  C  6  X    0.061951   0.053220   0.070340  -0.181949  -0.074828
   23  C  6  Y   -0.076248  -0.084188  -0.112624   0.089040  -0.089971
   24  C  6  Z   -0.411336  -0.407221  -0.538662  -0.026079   0.018850
   25  H  7  S   -0.003254   0.007089  -0.007056   0.158145   0.006650
   26  H  8  S   -0.160040   0.085333   0.076846   0.021682   0.072086
   27  H  9  S    0.089128  -0.060573  -0.041828   0.085638   0.142395
   28  H 10  S    0.088957   0.060422  -0.041683  -0.085255   0.142376
   29  H 11  S   -0.160040  -0.085358   0.076848  -0.021495   0.072326
   30  H 12  S   -0.003217  -0.007101  -0.006933  -0.158072   0.007241
   31  H 13  S   -0.010186  -0.013114  -0.017471  -0.074818  -0.162754
   32  H 14  S   -0.010087   0.013003  -0.017554   0.074439  -0.162914

                     21         22         23         24         25
                    0.1702     0.1809     0.2008     0.2111     0.2126
                     A          A          A          A          A   
    1  C  1  S    0.106636  -0.140160  -0.015668  -0.253114  -0.264825
    2  C  1  X   -0.034621  -0.191578  -0.065827   0.326715  -0.056813
    3  C  1  Y    0.236524  -0.276231  -0.062887  -0.022503   0.101039
    4  C  1  Z   -0.021363   0.026451   0.070904   0.027157   0.008534
    5  C  2  S   -0.256057   0.101651   0.043152   0.143757  -0.066890
    6  C  2  X    0.362548  -0.056353  -0.133416   0.079214  -0.119101
    7  C  2  Y    0.103250  -0.277318  -0.169828  -0.052828  -0.121260
    8  C  2  Z   -0.174512   0.123578  -0.390273   0.217285  -0.206461
    9  C  3  S    0.256097  -0.101677  -0.043313   0.143660  -0.066773
   10  C  3  X    0.091611   0.212531   0.073403  -0.088789  -0.041234
   11  C  3  Y   -0.369059   0.191500   0.190917   0.036545  -0.158781
   12  C  3  Z   -0.166936   0.115671  -0.396036  -0.216575   0.211342
   13  C  4  S   -0.106770   0.140222   0.015647  -0.253279  -0.264806
   14  C  4  X   -0.221779   0.141699   0.022018  -0.184610   0.116089
   15  C  4  Y   -0.089692   0.305338   0.090852   0.270361   0.001493
   16  C  4  Z   -0.015704   0.016125   0.068087  -0.031753  -0.010150
   17  C  5  S   -0.186770  -0.155063   0.059210   0.166069  -0.063682
   18  C  5  X   -0.328162  -0.304580   0.051011   0.080446   0.141993
   19  C  5  Y    0.127139   0.304686   0.037600   0.346357   0.232178
   20  C  5  Z   -0.090230  -0.083064  -0.012960   0.001305   0.051693
   21  C  6  S    0.187007   0.155123  -0.059069   0.165337  -0.063458
   22  C  6  X   -0.276595  -0.418182  -0.006631   0.258212   0.127649
   23  C  6  Y    0.216722   0.106554  -0.063102   0.243993   0.238914
   24  C  6  Z   -0.091877  -0.079437  -0.011217  -0.011772  -0.060266
   25  H  7  S    0.067725   0.177858   0.024726  -0.088282   0.284039
   26  H  8  S   -0.120469   0.101824  -0.373591   0.090641  -0.111052
   27  H  9  S    0.002001   0.000822   0.371272  -0.254932   0.283765
   28  H 10  S   -0.002531  -0.000555  -0.370920  -0.254939   0.283821
   29  H 11  S    0.120669  -0.101771   0.373503   0.090300  -0.111350
   30  H 12  S   -0.067767  -0.178059  -0.024963  -0.088199   0.284391
   31  H 13  S   -0.083479   0.049660   0.013874   0.126887   0.292603
   32  H 14  S    0.083576  -0.049919  -0.013717   0.127212   0.292947

                     26
                    0.2212
                     A   
    1  C  1  S    0.302034
    2  C  1  X   -0.143440
    3  C  1  Y   -0.152477
    4  C  1  Z    0.009037
    5  C  2  S   -0.186916
    6  C  2  X   -0.010314
    7  C  2  Y   -0.031728
    8  C  2  Z    0.039923
    9  C  3  S    0.185833
   10  C  3  X    0.023063
   11  C  3  Y    0.025998
   12  C  3  Z    0.036980
   13  C  4  S   -0.301796
   14  C  4  X    0.060475
   15  C  4  Y    0.199484
   16  C  4  Z    0.003396
   17  C  5  S    0.377237
   18  C  5  X   -0.075414
   19  C  5  Y    0.132941
   20  C  5  Z   -0.026003
   21  C  6  S   -0.378440
   22  C  6  X   -0.154134
   23  C  6  Y   -0.002804
   24  C  6  Z   -0.023525
   25  H  7  S   -0.182754
   26  H  8  S    0.167917
   27  H  9  S    0.130392
   28  H 10  S   -0.130917
   29  H 11  S   -0.165538
   30  H 12  S    0.184267
   31  H 13  S   -0.286537
   32  H 14  S    0.287222

     ----------------------------------------------------------------
     PROPERTY VALUES FOR THE RHF   SELF-CONSISTENT FIELD WAVEFUNCTION
     ----------------------------------------------------------------

                    -------------
                    MOPAC CHARGES
                    -------------
         ATOM NO.   TYPE          CHARGE        ATOM  ELECTRON DENSITY
           1         C             -0.1302          4.1302
           2         C             -0.2569          4.2569
           3         C             -0.2569          4.2569
           4         C             -0.1301          4.1301
           5         C             -0.1669          4.1669
           6         C             -0.1668          4.1668
           7         H              0.1339          0.8661
           8         H              0.1435          0.8565
           9         H              0.1351          0.8649
          10         H              0.1351          0.8649
          11         H              0.1435          0.8565
          12         H              0.1339          0.8661
          13         H              0.1414          0.8586
          14         H              0.1414          0.8586

          ---------------------
          ELECTROSTATIC MOMENTS
          ---------------------

 POINT   1           X           Y           Z (ANGS)      CHARGE
                 0.000000    0.000000    0.000000        0.00 (A.U.)
         DX          DY          DZ         /D/  (DEBYE)
     0.376197    0.655969   -0.010148    0.756255
 ...... END OF PROPERTY EVALUATION ......
 STEP CPU TIME =     0.01 TOTAL CPU TIME =          0.6 (      0.0 MIN)
 TOTAL WALL CLOCK TIME=          1.7 SECONDS, CPU UTILIZATION IS    34.30%
  $VIB   
          IVIB=   0 IATOM=   0 ICOORD=   0 E=      -30.9749650372
  5.440456153E-05-3.046825031E-05 1.099287384E-04-1.773081995E-05 1.642326028E-05
 -9.324022692E-05 1.127997761E-04 1.241030546E-04 1.026877240E-04-2.729076853E-05
 -6.996665951E-05-1.094863006E-04-3.714520536E-05 6.179275680E-05-1.749954233E-05
  3.418765030E-05 1.099079307E-04-1.676043200E-05-4.787042708E-05-6.418438295E-07
 -8.518465435E-05 7.030210207E-05-2.177275032E-06-7.503023303E-05-3.335904228E-05
  5.156598979E-07 1.172359651E-04 1.615240430E-05-5.418556874E-06-8.024736322E-05
 -1.511387412E-05 2.477570834E-05 4.177974812E-05-4.040926654E-05-3.853355731E-05
  7.004494104E-05-8.484566426E-05-4.983945584E-05 2.996395279E-06 1.591857378E-05
 -1.404727719E-04 3.277524050E-05
  3.761967818E-01 6.559687347E-01-1.014818067E-02
 ......END OF GEOMETRY SEARCH......
 STEP CPU TIME =     0.01 TOTAL CPU TIME =          0.6 (      0.0 MIN)
 TOTAL WALL CLOCK TIME=          1.7 SECONDS, CPU UTILIZATION IS    34.68%
                580000  WORDS OF DYNAMIC MEMORY USED
 EXECUTION OF GAMESS TERMINATED NORMALLY Mon Dec 19 23:38:03 2022
 DDI: 263640 bytes (0.3 MB / 0 MWords) used by master data server.

 ----------------------------------------
 CPU timing information for all processes
 ========================================
 0: 0.150 + 0.451 = 0.601
 ----------------------------------------
 ddikick.x: exited gracefully.
----- accounting info -----
Files used on the master node chemcompute-node-0.novalocal were:
-rw-r--r--. 1 chemcomp chemcomp     1112 Dec 19 23:38 /scratch/169673/518082.F05
-rw-rw-r--. 1 chemcomp chemcomp 45875200 Dec 19 23:38 /scratch/169673/518082.F10
Mon Dec 19 23:38:06 UTC 2022
0.096u 0.035s 0:05.05 2.3%	0+0k 8+216io 0pf+0w
Finishing Up...
Looking for IR data...
Looking for Raman data...
vibramans not found
Looking for thermodynamics data...
Looking for UV-Vis data...
chemcompute.org
{'UTCtimestamp': '2022-12-19T23:38:08.455806', 'cluster': 'jetstream2', 'clusterJobNumber': '169673', 'status': 'COMPLETE', 'nodeList': 'chemcompute-node-0'}
169673
